
                                 *****************
                                 * O   R   C   A *
                                 *****************

           --- An Ab Initio, DFT and Semiempirical electronic structure package ---

                  #######################################################
                  #                        -***-                        #
                  #  Department of molecular theory and spectroscopy    #
                  #              Directorship: Frank Neese              #
                  # Max Planck Institute for Chemical Energy Conversion #
                  #                  D-45470 Muelheim/Ruhr              #
                  #                       Germany                       #
                  #                                                     #
                  #                  All rights reserved                #
                  #                        -***-                        #
                  #######################################################


                         Program Version 3.0.3 - RELEASE   -


 With contributions from (in alphabetic order):
   Ute Becker             : Parallelization
   Dmytro Bykov           : SCF Hessian
   Dmitry Ganyushin       : Spin-Orbit,Spin-Spin,Magnetic field MRCI
   Andreas Hansen         : Spin unrestricted coupled pair/coupled cluster methods
   Dimitrios Liakos       : Extrapolation schemes; parallel MDCI
   Robert Izsak           : Overlap fitted RIJCOSX, COSX-SCS-MP3
   Christian Kollmar      : KDIIS, OOCD, Brueckner-CCSD(T), CCSD density
   Simone Kossmann        : Meta GGA functionals, TD-DFT gradient, OOMP2, MP2 Hessian
   Taras Petrenko         : DFT Hessian,TD-DFT gradient, ASA and ECA modules, normal mode analysis, Resonance Raman, ABS, FL, XAS/XES, NRVS
   Christoph Reimann      : Effective Core Potentials
   Michael Roemelt        : Restricted open shell CIS
   Christoph Riplinger    : Improved optimizer, TS searches, QM/MM, DLPNO-CCSD
   Barbara Sandhoefer     : DKH picture change effects
   Igor Schapiro          : Molecular dynamics
   Kantharuban Sivalingam : CASSCF convergence, NEVPT2
   Boris Wezisla          : Elementary symmetry handling
   Frank Wennmohs         : Technical directorship


 We gratefully acknowledge several colleagues who have allowed us to
 interface, adapt or use parts of their codes:
   Stefan Grimme, W. Hujo, H. Kruse, T. Risthaus : VdW corrections, initial TS optimization,
                                                   DFT functionals, gCP
   Ed Valeev                                     : LibInt (2-el integral package), F12 methods
   Garnet Chan, S. Sharma, R. Olivares           : DMRG
   Ulf Ekstrom                                   : XCFun DFT Library
   Mihaly Kallay                                 : mrcc  (arbitrary order and MRCC methods)
   Andreas Klamt, Michael Diedenhofen            : otool_cosmo (COSMO solvation model)
   Frank Weinhold                                : gennbo (NPA and NBO analysis)
   Christopher J. Cramer and Donald G. Truhlar   : smd solvation model


 Your calculation uses the libint2 library for the computation of 2-el integrals
 For citations please refer to: http://libint.valeyev.net

 This ORCA versions uses:
   CBLAS   interface :  Fast vector & matrix operations
   LAPACKE interface :  Fast linear algebra routines
   SCALAPACK package :  Parallel linear algebra routines


Your calculation utilizes the basis: Ahlrichs-TZV
Cite in your paper:
H - Kr: A. Schaefer, H. Horn and R. Ahlrichs, J. Chem. Phys. 97, 2571 (1992).

The def2-TZV basis will be loaded
Cite in your paper:
 	F. Weigend, R. Ahlrichs, Phys. Chem. Chem. Phys. 2005, 7, 3297.

================================================================================
                                        WARNINGS
                       Please study these warnings very carefully!
================================================================================
Now building the actual basis set
WARNING: Geometry optimizations can change the point-group symmetry!

WARNING: your system is open-shell and RHF/RKS was chosen
  ===> : WILL SWITCH to UHF/UKS


WARNING: Geometry Optimization
  ===> : Switching off AutoStart
         For restart on a previous wavefunction, please use MOREAD


INFO   : the flag for use of LIBINT has been found!

================================================================================
                                       INPUT FILE
================================================================================
NAME = /home/vladimir/git/private/ORCA/C8H8/T-cubane-1/optimize/DFT/B3LYP/TZVP/./cubane.inp
|  1> # ================================================================
|  2> # Orca input file for cubane B3LYP/def2-TZVP geometry optimization
|  3> # ================================================================
|  4> ! DFT B3LYP def2-TZVP TightSCF TightOPT UseSym
|  5> ! PAL4
|  6> 
|  7> * xyz 0 3
|  8>   H                     2.04891114    -1.28385753     0.01639629
|  9>   C                     1.07007002    -0.81239360    -0.05546669
| 10>   H                     2.04891114     1.28385753     0.01639629
| 11>   C                     1.07007002     0.81239360    -0.05546669
| 12>   H                     0.00000000    -1.61019161    -2.01437011
| 13>   C                     0.00000000    -1.32325628    -0.96962522
| 14>   H                     0.00000000     1.61019161    -2.01437011
| 15>   C                     0.00000000     1.32325628    -0.96962522
| 16>   H                     0.00000000    -1.43928333     1.95057909
| 17>   C                     0.00000000    -0.77017176     1.09445645
| 18>   H                     0.00000000     1.43928333     1.95057909
| 19>   C                     0.00000000     0.77017176     1.09445645
| 20>   H                    -2.04891114    -1.28385753     0.01639629
| 21>   C                    -1.07007002    -0.81239360    -0.05546669
| 22>   H                    -2.04891114     1.28385753     0.01639629
| 23>   C                    -1.07007002     0.81239360    -0.05546669
| 24> *
| 25> 
| 26>                          ****END OF INPUT****
================================================================================

------------------------------------------------------------------------------
                            SYMMETRY HANDLING SETUP
------------------------------------------------------------------------------

------------------
SYMMETRY DETECTION
------------------
Preparing Data                    ... done
Detection Threshold:    SymThresh ... 1.0000e-04

Point Group will now be determined:
Moving molecule to center of mass ... done

POINT GROUP                       ... C2v

The coordinates will now be cleaned:
Moving to standard coord frame    ... done
(Changed main axis to z and one of the symmetry planes to xz plane)
Structure cleanup requested       ... yes
Selected point group              ... C2v
Cleaning Tolerance      SymThresh ... 1.0000e-04

Some missing point group data is constructed:
Constructing symmetry operations  ... done
Creating atom transfer table      ... done
Creating asymmetric unit          ... done

Cleaning coordinates              ... done

-----------------------------------------------
SYMMETRY-PERFECTED CARTESIAN COORDINATES (A.U.)
-----------------------------------------------
   0 H     3.87188093   2.42613913  -0.02606094 
   1 C     2.02213928   1.53520142   0.10974041 
   2 H     3.87188093  -2.42613913  -0.02606094 
   3 C     2.02213928  -1.53520142   0.10974041 
   4 H     0.00000000   3.04282117   3.81153140 
   5 C     0.00000000   2.50059197   1.83724968 
   6 H     0.00000000  -3.04282117   3.81153140 
   7 C     0.00000000  -2.50059197   1.83724968 
   8 H     0.00000000   2.71985132  -3.68113672 
   9 C     0.00000000   1.45541370  -2.06329940 
  10 H     0.00000000  -2.71985132  -3.68113672 
  11 C     0.00000000  -1.45541370  -2.06329940 
  12 H    -3.87188093   2.42613913  -0.02606094 
  13 C    -2.02213928   1.53520142   0.10974041 
  14 H    -3.87188093  -2.42613913  -0.02606094 
  15 C    -2.02213928  -1.53520142   0.10974041 

------------------
SYMMETRY REDUCTION
------------------
ORCA supports only abelian point groups.
It is now checked, if the determined point group is supported:
Point Group ( C2v   ) is          ... supported

(Re)building abelian point group:
Creating Character Table          ... done
Making direct product table       ... done

----------------------
ASYMMETRIC UNIT IN C2v
----------------------
  #  AT     MASS              COORDS (A.U.)             BAS
   0 H    1.0080   3.87188093   2.42613913  -0.02606094   0
   1 C   12.0110   2.02213928   1.53520142   0.10974041   0
   4 H    1.0080   0.00000000   3.04282117   3.81153140   0
   5 C   12.0110   0.00000000   2.50059197   1.83724968   0
   8 H    1.0080   0.00000000   2.71985132  -3.68113672   0
   9 C   12.0110   0.00000000   1.45541370  -2.06329940   0

----------------------
SYMMETRY ADAPTED BASIS
----------------------
The coefficients for the symmetry adapted linear combinations (SALCS)
of basis functions will now be computed:
Number of basis functions         ...   296
Preparing memory                  ... done
Constructing Gamma(red)           ... done
Reducing Gamma(red)               ... done
Constructing SALCs                ... done
Checking SALC integrity           ... nothing suspicious
Normalizing SALCs                 ... done

Storing the symmetry object:
Symmetry file                     ... /home/vladimir/git/private/ORCA/C8H8/T-cubane-1/optimize/DFT/B3LYP/TZVP/./cubane.sym.tmp
Writing symmetry information      ... done

                       *****************************
                       * Geometry Optimization Run *
                       *****************************

Geometry optimization settings:
Update method            Update   .... BFGS
Choice of coordinates    CoordSys .... Redundant Internals
Initial Hessian          InHess   .... Almoef's Model

Convergence Tolerances:
Energy Change            TolE     ....  1.0000e-06 Eh
Max. Gradient            TolMAXG  ....  1.0000e-04 Eh/bohr
RMS Gradient             TolRMSG  ....  3.0000e-05 Eh/bohr
Max. Displacement        TolMAXD  ....  1.0000e-03 bohr
RMS Displacement         TolRMSD  ....  6.0000e-04 bohr

------------------------------------------------------------------------------
                        ORCA OPTIMIZATION COORDINATE SETUP
------------------------------------------------------------------------------

The optimization will be done in new redundant internal coordinates
Making redundant internal coordinates   ...  (new redundants) done
Evaluating the initial hessian          ...  (Almloef) done
Evaluating the coordinates              ...  done
Calculating the B-matrix                .... done
Calculating the G-matrix                .... done
Diagonalizing the G-matrix              .... done
The first mode is                       ....  106
The number of degrees of freedom        ....   42

    -----------------------------------------------------------------
                    Redundant Internal Coordinates


    -----------------------------------------------------------------
         Definition                    Initial Value    Approx d2E/dq
    -----------------------------------------------------------------
      1. B(C   1,H   0)                  1.0888         0.361638   
      2. B(C   3,C   1)                  1.6248         0.263725   
      3. B(C   3,H   2)                  1.0888         0.361638   
      4. B(C   5,H   4)                  1.0834         0.368895   
      5. B(C   5,C   1)                  1.4972         0.421357   
      6. B(C   7,H   6)                  1.0834         0.368895   
      7. B(C   7,C   3)                  1.4972         0.421357   
      8. B(C   9,H   8)                  1.0866         0.364653   
      9. B(C   9,C   1)                  1.5714         0.320921   
     10. B(C  11,H  10)                  1.0866         0.364653   
     11. B(C  11,C   9)                  1.5403         0.359646   
     12. B(C  11,C   3)                  1.5714         0.320921   
     13. B(C  13,H  12)                  1.0888         0.361638   
     14. B(C  13,C   9)                  1.5714         0.320921   
     15. B(C  13,C   5)                  1.4972         0.421357   
     16. B(C  15,H  14)                  1.0888         0.361638   
     17. B(C  15,C  13)                  1.6248         0.263725   
     18. B(C  15,C  11)                  1.5714         0.320921   
     19. B(C  15,C   7)                  1.4972         0.421357   
     20. A(H   0,C   1,C   5)          122.3475         0.331051   
     21. A(C   5,C   1,C   9)           88.2398         0.361399   
     22. A(H   0,C   1,C   3)          115.6579         0.306694   
     23. A(H   0,C   1,C   9)          125.1364         0.316584   
     24. A(C   3,C   1,C   5)          109.9502         0.349561   
     25. A(C   3,C   1,C   9)           88.4603         0.333988   
     26. A(H   2,C   3,C  11)          125.1364         0.316584   
     27. A(C   1,C   3,C  11)           88.4603         0.333988   
     28. A(H   2,C   3,C   7)          122.3475         0.331051   
     29. A(C   1,C   3,H   2)          115.6579         0.306694   
     30. A(C   1,C   3,C   7)          109.9502         0.349561   
     31. A(C   7,C   3,C  11)           88.2398         0.361399   
     32. A(H   4,C   5,C  13)          132.7754         0.332142   
     33. A(C   1,C   5,H   4)          132.7754         0.332142   
     34. A(C   1,C   5,C  13)           91.2367         0.378714   
     35. A(H   6,C   7,C  15)          132.7754         0.332142   
     36. A(C   3,C   7,C  15)           91.2367         0.378714   
     37. A(C   3,C   7,H   6)          132.7754         0.332142   
     38. A(C  11,C   9,C  13)           91.5397         0.351808   
     39. A(H   8,C   9,C  13)          124.0590         0.317012   
     40. A(C   1,C   9,H   8)          124.0590         0.317012   
     41. A(C   1,C   9,C  13)           85.8414         0.345118   
     42. A(H   8,C   9,C  11)          128.0098         0.322968   
     43. A(C   1,C   9,C  11)           91.5397         0.351808   
     44. A(C   3,C  11,C  15)           85.8414         0.345118   
     45. A(C   9,C  11,H  10)          128.0098         0.322968   
     46. A(C   3,C  11,H  10)          124.0590         0.317012   
     47. A(C   3,C  11,C   9)           91.5397         0.351808   
     48. A(H  10,C  11,C  15)          124.0590         0.317012   
     49. A(C   9,C  11,C  15)           91.5397         0.351808   
     50. A(C   9,C  13,H  12)          125.1364         0.316584   
     51. A(C   5,C  13,H  12)          122.3475         0.331051   
     52. A(C   5,C  13,C   9)           88.2398         0.361399   
     53. A(H  12,C  13,C  15)          115.6579         0.306694   
     54. A(C   9,C  13,C  15)           88.4603         0.333988   
     55. A(C   5,C  13,C  15)          109.9502         0.349561   
     56. A(C  13,C  15,H  14)          115.6579         0.306694   
     57. A(C  11,C  15,H  14)          125.1364         0.316584   
     58. A(C   7,C  15,H  14)          122.3475         0.331051   
     59. A(C  11,C  15,C  13)           88.4603         0.333988   
     60. A(C   7,C  15,C  13)          109.9502         0.349561   
     61. A(C   7,C  15,C  11)           88.2398         0.361399   
     62. D(C   7,C   3,C   1,C   9)    -87.5672         0.006051   
     63. D(C  11,C   3,C   1,C   9)      0.0000         0.006051   
     64. D(H   2,C   3,C   1,H   0)      0.0000         0.006051   
     65. D(C  11,C   3,C   1,C   5)     87.5672         0.006051   
     66. D(H   2,C   3,C   1,C   5)   -143.6917         0.006051   
     67. D(H   2,C   3,C   1,C   9)    128.7410         0.006051   
     68. D(C   7,C   3,C   1,H   0)    143.6917         0.006051   
     69. D(C   7,C   3,C   1,C   5)     -0.0000         0.006051   
     70. D(C  11,C   3,C   1,H   0)   -128.7410         0.006051   
     71. D(C  13,C   5,C   1,C   9)     19.4933         0.013126   
     72. D(C  13,C   5,C   1,C   3)    -68.2284         0.013126   
     73. D(C  13,C   5,C   1,H   0)    150.9535         0.013126   
     74. D(H   4,C   5,C   1,C   9)   -179.5271         0.013126   
     75. D(H   4,C   5,C   1,C   3)     92.7513         0.013126   
     76. D(H   4,C   5,C   1,H   0)    -48.0669         0.013126   
     77. D(C  15,C   7,C   3,C  11)    -19.4933         0.013126   
     78. D(C  15,C   7,C   3,C   1)     68.2284         0.013126   
     79. D(C  15,C   7,C   3,H   2)   -150.9535         0.013126   
     80. D(H   6,C   7,C   3,C  11)    179.5271         0.013126   
     81. D(H   6,C   7,C   3,H   2)     48.0669         0.013126   
     82. D(H   6,C   7,C   3,C   1)    -92.7513         0.013126   
     83. D(C  11,C   9,C   1,C   3)      0.0000         0.008437   
     84. D(C  13,C   9,C   1,H   0)   -147.8539         0.008437   
     85. D(C  13,C   9,C   1,C   5)    -18.5856         0.008437   
     86. D(C  13,C   9,C   1,C   3)     91.4323         0.008437   
     87. D(C  11,C   9,C   1,H   0)    120.7138         0.008437   
     88. D(H   8,C   9,C   1,C   5)    110.3643         0.008437   
     89. D(H   8,C   9,C   1,H   0)    -18.9040         0.008437   
     90. D(C  11,C   9,C   1,C   5)   -110.0179         0.008437   
     91. D(H   8,C   9,C   1,C   3)   -139.6178         0.008437   
     92. D(C   9,C  11,C   3,C   1)      0.0000         0.008437   
     93. D(C  15,C  11,C   9,C  13)     -0.0000         0.010379   
     94. D(C  15,C  11,C   9,C   1)     85.8799         0.010379   
     95. D(H  10,C  11,C   9,C  13)    137.0600         0.010379   
     96. D(H  10,C  11,C   9,H   8)      0.0000         0.010379   
     97. D(H  10,C  11,C   3,H   2)     18.9040         0.008437   
     98. D(C   3,C  11,C   9,C   1)      0.0000         0.010379   
     99. D(C  15,C  11,C   3,H   2)    147.8539         0.008437   
    100. D(C  15,C  11,C   3,C   1)    -91.4323         0.008437   
    101. D(H  10,C  11,C   3,C   7)   -110.3643         0.008437   
    102. D(C  15,C  11,C   3,C   7)     18.5856         0.008437   
    103. D(C   3,C  11,C   9,C  13)    -85.8799         0.010379   
    104. D(H  10,C  11,C   3,C   1)    139.6178         0.008437   
    105. D(H  10,C  11,C   9,C   1)   -137.0600         0.010379   
    106. D(C   9,C  11,C   3,C   7)    110.0179         0.008437   
    107. D(C  15,C  11,C   9,H   8)   -137.0600         0.010379   
    108. D(C   9,C  11,C   3,H   2)   -120.7138         0.008437   
    109. D(C   3,C  11,C   9,H   8)    137.0600         0.010379   
    110. D(C  15,C  13,C   9,H   8)    139.6178         0.008437   
    111. D(C  15,C  13,C   9,C   1)    -91.4323         0.008437   
    112. D(H  12,C  13,C   9,C  11)   -120.7138         0.008437   
    113. D(H  12,C  13,C   9,C   1)    147.8539         0.008437   
    114. D(C   5,C  13,C   9,C  11)    110.0179         0.008437   
    115. D(C   5,C  13,C   9,H   8)   -110.3643         0.008437   
    116. D(C   5,C  13,C   9,C   1)     18.5856         0.008437   
    117. D(C  15,C  13,C   5,H   4)    -92.7513         0.013126   
    118. D(C  15,C  13,C   5,C   1)     68.2284         0.013126   
    119. D(H  12,C  13,C   9,H   8)     18.9040         0.008437   
    120. D(H  12,C  13,C   5,H   4)     48.0669         0.013126   
    121. D(H  12,C  13,C   5,C   1)   -150.9535         0.013126   
    122. D(C   9,C  13,C   5,H   4)    179.5271         0.013126   
    123. D(C  15,C  13,C   9,C  11)      0.0000         0.008437   
    124. D(C   9,C  13,C   5,C   1)    -19.4933         0.013126   
    125. D(H  14,C  15,C  13,C   9)   -128.7410         0.006051   
    126. D(H  14,C  15,C  13,C   5)    143.6917         0.006051   
    127. D(C  11,C  15,C  13,H  12)    128.7410         0.006051   
    128. D(C  11,C  15,C  13,C   9)      0.0000         0.006051   
    129. D(C  11,C  15,C  13,C   5)    -87.5672         0.006051   
    130. D(C   7,C  15,C  13,H  12)   -143.6917         0.006051   
    131. D(C   7,C  15,C  13,C   9)     87.5672         0.006051   
    132. D(H  14,C  15,C  11,H  10)    -18.9040         0.008437   
    133. D(H  14,C  15,C  11,C   9)    120.7138         0.008437   
    134. D(H  14,C  15,C  11,C   3)   -147.8539         0.008437   
    135. D(C  13,C  15,C  11,H  10)   -139.6178         0.008437   
    136. D(C  13,C  15,C  11,C   9)      0.0000         0.008437   
    137. D(C  13,C  15,C  11,C   3)     91.4323         0.008437   
    138. D(C   7,C  15,C  11,H  10)    110.3643         0.008437   
    139. D(C   7,C  15,C  13,C   5)      0.0000         0.006051   
    140. D(C   7,C  15,C  11,C   9)   -110.0179         0.008437   
    141. D(C   7,C  15,C  11,C   3)    -18.5856         0.008437   
    142. D(H  14,C  15,C   7,H   6)    -48.0669         0.013126   
    143. D(H  14,C  15,C   7,C   3)    150.9535         0.013126   
    144. D(C  13,C  15,C   7,H   6)     92.7513         0.013126   
    145. D(C  13,C  15,C   7,C   3)    -68.2284         0.013126   
    146. D(C  11,C  15,C   7,H   6)   -179.5271         0.013126   
    147. D(H  14,C  15,C  13,H  12)      0.0000         0.006051   
    148. D(C  11,C  15,C   7,C   3)     19.4933         0.013126   
    -----------------------------------------------------------------

Number of atoms                         .... 16
Number of degrees of freedom            .... 148

         *************************************************************
         *                GEOMETRY OPTIMIZATION CYCLE   1            *
         *************************************************************
---------------------------------
CARTESIAN COORDINATES (ANGSTROEM)
---------------------------------
  H      2.048911    1.283858   -0.013791
  C      1.070070    0.812394    0.058072
  H      2.048911   -1.283858   -0.013791
  C      1.070070   -0.812394    0.058072
  H      0.000000    1.610192    2.016976
  C      0.000000    1.323256    0.972231
  H      0.000000   -1.610192    2.016976
  C      0.000000   -1.323256    0.972231
  H      0.000000    1.439283   -1.947974
  C      0.000000    0.770172   -1.091851
  H      0.000000   -1.439283   -1.947974
  C      0.000000   -0.770172   -1.091851
  H     -2.048911    1.283858   -0.013791
  C     -1.070070    0.812394    0.058072
  H     -2.048911   -1.283858   -0.013791
  C     -1.070070   -0.812394    0.058072

----------------------------
CARTESIAN COORDINATES (A.U.)
----------------------------
  NO LB      ZA    FRAG    MASS        X           Y           Z
   0 H     1.0000    0     1.008          3.871880927340384          2.426139126672587         -0.026060938530359
   1 C     6.0000    0    12.011          2.022139281919636          1.535201416950368          0.109740412837101
   2 H     1.0000    0     1.008          3.871880927340384         -2.426139126672587         -0.026060938530359
   3 C     6.0000    0    12.011          2.022139281919636         -1.535201416950368          0.109740412837101
   4 H     1.0000    0     1.008          0.000000000000000          3.042821166037736          3.811531399438819
   5 C     6.0000    0    12.011          0.000000000000000          2.500591974191417          1.837249677525136
   6 H     1.0000    0     1.008          0.000000000000000         -3.042821166037736          3.811531399438819
   7 C     6.0000    0    12.011          0.000000000000000         -2.500591974191417          1.837249677525136
   8 H     1.0000    0     1.008          0.000000000000000          2.719851322818205         -3.681136723471340
   9 C     6.0000    0    12.011          0.000000000000000          1.455413702480126         -2.063299396821685
  10 H     1.0000    0     1.008          0.000000000000000         -2.719851322818205         -3.681136723471340
  11 C     6.0000    0    12.011          0.000000000000000         -1.455413702480126         -2.063299396821685
  12 H     1.0000    0     1.008         -3.871880927340384          2.426139126672587         -0.026060938530359
  13 C     6.0000    0    12.011         -2.022139281919636          1.535201416950368          0.109740412837101
  14 H     1.0000    0     1.008         -3.871880927340384         -2.426139126672587         -0.026060938530359
  15 C     6.0000    0    12.011         -2.022139281919636         -1.535201416950368          0.109740412837101

--------------------------------
INTERNAL COORDINATES (ANGSTROEM)
--------------------------------
 H      0   0   0   0.000000     0.000     0.000
 C      1   0   0   1.088840     0.000     0.000
 H      2   1   0   2.314641    90.569     0.000
 C      3   2   1   1.088840    39.253   180.000
 H      2   1   3   2.370408   108.339   123.545
 C      5   2   1   1.083431    27.622   138.539
 H      4   3   2   2.370408   108.339   236.455
 C      7   4   3   1.083431    27.622   221.461
 H      2   1   3   2.358444   103.689   245.133
 C      9   2   1   1.086580    33.503   164.175
 H      4   3   2   2.358444   103.689   114.867
 C     11   4   3   1.086580    33.503   195.825
 H      6   5   2   2.274165   115.004   173.039
 C     13   6   5   1.088840    33.793   217.051
 H      8   7   4   2.274165   115.004   186.961
 C     15   8   7   1.088840    33.793   142.949

---------------------------
INTERNAL COORDINATES (A.U.)
---------------------------
 H      0   0   0   0.000000     0.000     0.000
 C      1   0   0   2.057609     0.000     0.000
 H      2   1   0   4.374038    90.569     0.000
 C      3   2   1   2.057609    39.253   180.000
 H      2   1   3   4.479422   108.339   123.545
 C      5   2   1   2.047389    27.622   138.539
 H      4   3   2   4.479422   108.339   236.455
 C      7   4   3   2.047389    27.622   221.461
 H      2   1   3   4.456814   103.689   245.133
 C      9   2   1   2.053339    33.503   164.175
 H      4   3   2   4.456814   103.689   114.867
 C     11   4   3   2.053339    33.503   195.825
 H      6   5   2   4.297549   115.004   173.039
 C     13   6   5   2.057609    33.793   217.051
 H      8   7   4   4.297549   115.004   186.961
 C     15   8   7   2.057609    33.793   142.949

---------------------
BASIS SET INFORMATION
---------------------
There are 2 groups of distinct atoms

 Group   1 Type H   : 5s1p contracted to 3s1p pattern {311/1}
 Group   2 Type C   : 11s6p2d1f contracted to 5s3p2d1f pattern {62111/411/11/1}

Atom   0H    basis set group =>   1
Atom   1C    basis set group =>   2
Atom   2H    basis set group =>   1
Atom   3C    basis set group =>   2
Atom   4H    basis set group =>   1
Atom   5C    basis set group =>   2
Atom   6H    basis set group =>   1
Atom   7C    basis set group =>   2
Atom   8H    basis set group =>   1
Atom   9C    basis set group =>   2
Atom  10H    basis set group =>   1
Atom  11C    basis set group =>   2
Atom  12H    basis set group =>   1
Atom  13C    basis set group =>   2
Atom  14H    basis set group =>   1
Atom  15C    basis set group =>   2


           ************************************************************
           *        Program running with 4 parallel MPI-processes     *
           *              working on a common directory               *
           ************************************************************
------------------------------------------------------------------------------
                           ORCA GTO INTEGRAL CALCULATION
------------------------------------------------------------------------------

                         BASIS SET STATISTICS AND STARTUP INFO

 # of primitive gaussian shells          ...  208
 # of primitive gaussian functions       ...  432
 # of contracted shell                   ...  120
 # of contracted basis functions         ...  296
 Highest angular momentum                ...    3
 Maximum contraction depth               ...    6
 Integral package used                   ... LIBINT
 Integral threshhold            Thresh   ...  2.500e-11
 Primitive cut-off              TCut     ...  2.500e-12


                              INTEGRAL EVALUATION

 One electron integrals                  ... done
 Pre-screening matrix                    ... done
 Shell pair data                         ... done (   0.002 sec)

           ************************************************************
           *              Shut down parallel processing               *
           ************************************************************


           ************************************************************
           *        Program running with 4 parallel MPI-processes     *
           *              working on a common directory               *
           ************************************************************
-------------------------------------------------------------------------------
                                 ORCA SCF
-------------------------------------------------------------------------------

------------
SCF SETTINGS
------------
Hamiltonian:
 Density Functional     Method          .... DFT(GTOs)
 Exchange Functional    Exchange        .... B88
   X-Alpha parameter    XAlpha          ....  0.666667
   Becke's b parameter  XBeta           ....  0.004200
 Correlation Functional Correlation     .... LYP
 LDA part of GGA corr.  LDAOpt          .... VWN-5
 Gradients option       PostSCFGGA      .... off
 Hybrid DFT is turned on
   Fraction HF Exchange ScalHFX         ....  0.200000
   Scaling of DF-GGA-X  ScalDFX         ....  0.720000
   Scaling of DF-GGA-C  ScalDFC         ....  0.810000
   Scaling of DF-LDA-C  ScalLDAC        ....  1.000000
   Perturbative correction              ....  0.000000
   NL short-range parameter             ....  4.800000


General Settings:
 Integral files         IntName         .... /home/vladimir/git/private/ORCA/C8H8/T-cubane-1/optimize/DFT/B3LYP/TZVP/./cubane
 Hartree-Fock type      HFTyp           .... UHF
 Total Charge           Charge          ....    0
 Multiplicity           Mult            ....    3
 Number of Electrons    NEL             ....   56
 Basis Dimension        Dim             ....  296
 Nuclear Repulsion      ENuc            ....    359.0052458013 Eh

 Symmetry handling      UseSym         .... ON
 Point group                           .... C2v
 Used point group                      .... C2v
 Number of irreps                      .... 4
   Irrep   A1 has   89 symmetry adapted basis functions (ofs=   0)
   Irrep   A2 has   59 symmetry adapted basis functions (ofs=  89)
   Irrep   B1 has   59 symmetry adapted basis functions (ofs= 148)
   Irrep   B2 has   89 symmetry adapted basis functions (ofs= 207)

Convergence Acceleration:
 DIIS                   CNVDIIS         .... on
   Start iteration      DIISMaxIt       ....    12
   Startup error        DIISStart       ....  0.200000
   # of expansion vecs  DIISMaxEq       ....     5
   Bias factor          DIISBfac        ....   1.050
   Max. coefficient     DIISMaxC        ....  10.000
 Newton-Raphson         CNVNR           .... off
 SOSCF                  CNVSOSCF        .... off
 Level Shifting         CNVShift        .... on
   Level shift para.    LevelShift      ....    0.2500
   Turn off err/grad.   ShiftErr        ....    0.0010
 Zerner damping         CNVZerner       .... off
 Static damping         CNVDamp         .... on
   Fraction old density DampFac         ....    0.7000
   Max. Damping (<1)    DampMax         ....    0.9800
   Min. Damping (>=0)   DampMin         ....    0.0000
   Turn off err/grad.   DampErr         ....    0.1000
 Fernandez-Rico         CNVRico         .... off

SCF Procedure:
 Maximum # iterations   MaxIter         ....   125
 SCF integral mode      SCFMode         .... Direct
   Integral package                     .... LIBINT
 Reset frequeny         DirectResetFreq ....    20
 Integral Threshold     Thresh          ....  2.500e-11 Eh
 Primitive CutOff       TCut            ....  2.500e-12 Eh

Convergence Tolerance:
 Convergence Check Mode ConvCheckMode   .... Total+1el-Energy
 Energy Change          TolE            ....  1.000e-08 Eh
 1-El. energy change                    ....  1.000e-05 Eh
 DIIS Error             TolErr          ....  5.000e-07


Diagonalization of the overlap matrix:
Smallest eigenvalue                        ... 4.715e-06
Time for diagonalization                   ...    0.059 sec
Threshold for overlap eigenvalues          ... 1.000e-08
Number of eigenvalues below threshold      ... 0
Time for construction of square roots      ...    0.010 sec
Producing symmetrization matrix            ... done (   0.004 sec)
Total time needed                          ...    0.073 sec

-------------------
DFT GRID GENERATION
-------------------

General Integration Accuracy     IntAcc      ...  4.340
Radial Grid Type                 RadialGrid  ... Gauss-Chebyshev
Angular Grid (max. acc.)         AngularGrid ... Lebedev-110
Angular grid pruning method      GridPruning ... 3 (G Style)
Weight generation scheme         WeightScheme... Becke
Basis function cutoff            BFCut       ...    1.0000e-11
Integration weight cutoff        WCut        ...    1.0000e-14
Grids for H and He will be reduced by one unit

# of grid points (after initial pruning)     ...  19600 (   0.0 sec)
# of grid points (after weights+screening)   ...  17856 (   0.0 sec)
nearest neighbour list constructed           ...    0.0 sec
Grid point re-assignment to atoms done       ...    0.0 sec
Grid point division into batches done        ...    0.0 sec
Reduced shell lists constructed in    0.1 sec

Total number of grid points                  ...    17856
Total number of batches                      ...      290
Average number of points per batch           ...       61
Average number of grid points per atom       ...     1116
Average number of shells per batch           ...    90.45 (75.37%)
Average number of basis functions per batch  ...   236.09 (79.76%)
Average number of large shells per batch     ...    74.93 (82.85%)
Average number of large basis fcns per batch ...   194.31 (82.30%)
Maximum spatial batch extension              ...  20.15, 16.72, 22.36 au
Average spatial batch extension              ...   0.96,  0.96,  0.98 au

Time for grid setup =    0.077 sec

------------------------------
INITIAL GUESS: MODEL POTENTIAL
------------------------------
Loading Hartree-Fock densities                     ... done
Calculating cut-offs                               ... done
Setting up the integral package                    ... done
Initializing the effective Hamiltonian             ... done
Starting the Coulomb interaction                   ... done (   0.0 sec)
Reading the grid                                   ... done
Mapping shells                                     ... done
Starting the XC term evaluation                    ... done (   0.2 sec)
  promolecular density results
     # of electrons  =     56.005618893
     EX              =    -43.488142702
     EC              =     -1.858043786
     EX+EC           =    -45.346186488
done (   0.0 sec)
Diagonalizing the Hamiltonian                      ... done (   0.0 sec)
Back transforming the eigenvectors                 ... done (   0.0 sec)
Now organizing SCF variables                       ... done
The symmetry of the initial guess is 3-B2
Irrep occupations for operator 0
    A1 -   11
    A2 -    4
    B1 -    5
    B2 -    9
Irrep occupations for operator 1
    A1 -   10
    A2 -    4
    B1 -    5
    B2 -    8
                      ------------------
                      INITIAL GUESS DONE (   0.4 sec)
                      ------------------
--------------
SCF ITERATIONS
--------------
ITER       Energy         Delta-E        Max-DP      RMS-DP      [F,P]     Damp
               ***  Starting incremental Fock matrix formation  ***
  0   -309.1159494356   0.000000000000 0.24358468  0.00276356  0.1245376 0.7000
  1   -309.1825083333  -0.066558897708 0.05216443  0.00066044  0.0402949 0.7000
                               ***Turning on DIIS***
  2   -309.2176955648  -0.035187231579 0.18394381  0.00204892  0.0174862 0.0000
  3   -309.2949308008  -0.077235235947 0.03312206  0.00040830  0.0116904 0.0000
  4   -309.2959651816  -0.001034380857 0.01005280  0.00012378  0.0061257 0.0000
  5   -309.2963662225  -0.000401040823 0.00164962  0.00003382  0.0007111 0.0000
  6   -309.2963897769  -0.000023554395 0.00102794  0.00001730  0.0003547 0.0000
  7   -309.2963936639  -0.000003887048 0.00027017  0.00000560  0.0002541 0.0000
  8   -309.2963948541  -0.000001190163 0.00015182  0.00000280  0.0000456 0.0000
  9   -309.2963950921  -0.000000237987 0.00006366  0.00000127  0.0000262 0.0000
 10   -309.2963951384  -0.000000046307 0.00004243  0.00000053  0.0000181 0.0000
 11   -309.2963951476  -0.000000009236 0.00003517  0.00000051  0.0000043 0.0000
 12   -309.2963951517  -0.000000004050 0.00002442  0.00000032  0.0000015 0.0000
 13   -309.2963951537  -0.000000002068 0.00000697  0.00000012  0.0000015 0.0000
                 **** Energy Check signals convergence ****

               *****************************************************
               *                     SUCCESS                       *
               *           SCF CONVERGED AFTER  14 CYCLES          *
               *****************************************************

Setting up the final grid:

General Integration Accuracy     IntAcc      ...  4.670
Radial Grid Type                 RadialGrid  ... Gauss-Chebyshev
Angular Grid (max. acc.)         AngularGrid ... Lebedev-302
Angular grid pruning method      GridPruning ... 3 (G Style)
Weight generation scheme         WeightScheme... Becke
Basis function cutoff            BFCut       ...    1.0000e-11
Integration weight cutoff        WCut        ...    1.0000e-14
Grids for H and He will be reduced by one unit

# of grid points (after initial pruning)     ...  76848 (   0.0 sec)
# of grid points (after weights+screening)   ...  68930 (   0.0 sec)
nearest neighbour list constructed           ...    0.0 sec
Grid point re-assignment to atoms done       ...    0.0 sec
Grid point division into batches done        ...    0.2 sec
Reduced shell lists constructed in    0.3 sec

Total number of grid points                  ...    68930
Total number of batches                      ...     1086
Average number of points per batch           ...       63
Average number of grid points per atom       ...     4308
Average number of shells per batch           ...    83.65 (69.71%)
Average number of basis functions per batch  ...   217.85 (73.60%)
Average number of large shells per batch     ...    68.06 (81.36%)
Average number of large basis fcns per batch ...   175.72 (80.66%)
Maximum spatial batch extension              ...  19.82, 21.17, 18.48 au
Average spatial batch extension              ...   0.64,  0.63,  0.63 au

Final grid set up in    0.4 sec
Final integration                            ... done (   1.1 sec)
Change in XC energy                          ...    -0.000510652
Integrated number of electrons               ...    55.999993955
Previous integrated no of electrons          ...    55.996902592

----------------
TOTAL SCF ENERGY
----------------

Total Energy       :         -309.29690580 Eh           -8416.39669 eV

Components:
Nuclear Repulsion  :          359.00524580 Eh            9769.02939 eV
Electronic Energy  :         -668.30215160 Eh          -18185.42607 eV

One Electron Energy:        -1127.90198557 Eh          -30691.77337 eV
Two Electron Energy:          459.59983396 Eh           12506.34729 eV

Virial components:
Potential Energy   :         -617.16365007 Eh          -16793.87670 eV
Kinetic Energy     :          307.86674426 Eh            8377.48001 eV
Virial Ratio       :            2.00464539


DFT components:
N(Alpha)           :       28.999970959389 electrons
N(Beta)            :       27.000022995370 electrons
N(Total)           :       55.999993954760 electrons
E(X)               :      -35.185749023899 Eh       
E(C)               :       -2.183770933380 Eh       
E(XC)              :      -37.369519957279 Eh       

---------------
SCF CONVERGENCE
---------------

  Last Energy change         ...    2.2146e-09  Tolerance :   1.0000e-08
  Last MAX-Density change    ...    1.2505e-05  Tolerance :   1.0000e-07
  Last RMS-Density change    ...    2.0732e-07  Tolerance :   5.0000e-09
  Last DIIS Error            ...    3.6744e-07  Tolerance :   5.0000e-07

             **** THE GBW FILE WAS UPDATED (/home/vladimir/git/private/ORCA/C8H8/T-cubane-1/optimize/DFT/B3LYP/TZVP/./cubane.gbw) ****
             **** DENSITY FILE WAS UPDATED (/home/vladimir/git/private/ORCA/C8H8/T-cubane-1/optimize/DFT/B3LYP/TZVP/./cubane.scfp.tmp) ****
             **** ENERGY FILE WAS UPDATED (/home/vladimir/git/private/ORCA/C8H8/T-cubane-1/optimize/DFT/B3LYP/TZVP/./cubane.en.tmp) ****
----------------------
UHF SPIN CONTAMINATION
----------------------

Warning: in a DFT calculation there is little theoretical justification to 
         calculate <S**2> as in Hartree-Fock theory. We will do it anyways
         but you should keep in mind that the values have only limited relevance

Expectation value of <S**2>     :     2.007079
Ideal value S*(S+1) for S=1.0   :     2.000000
Deviation                       :     0.007079

----------------
ORBITAL ENERGIES
----------------
                 SPIN UP ORBITALS
  NO   OCC          E(Eh)            E(eV)    Irrep 
   0   1.0000     -10.178335      -276.9666    1-A1
   1   1.0000     -10.178318      -276.9661    1-B1
   2   1.0000     -10.178221      -276.9635    1-B2
   3   1.0000     -10.178206      -276.9631    1-A2
   4   1.0000     -10.175481      -276.8889    2-B2
   5   1.0000     -10.175459      -276.8883    2-A1
   6   1.0000     -10.173083      -276.8237    3-A1
   7   1.0000     -10.172897      -276.8186    3-B2
   8   1.0000      -0.928360       -25.2620    4-A1
   9   1.0000      -0.784457       -21.3462    4-B2
  10   1.0000      -0.712482       -19.3876    2-B1
  11   1.0000      -0.696257       -18.9461    5-A1
  12   1.0000      -0.584510       -15.9053    5-B2
  13   1.0000      -0.577540       -15.7156    2-A2
  14   1.0000      -0.558193       -15.1892    6-A1
  15   1.0000      -0.529062       -14.3965    7-A1
  16   1.0000      -0.476281       -12.9603    6-B2
  17   1.0000      -0.466603       -12.6969    8-A1
  18   1.0000      -0.453320       -12.3355    7-B2
  19   1.0000      -0.427892       -11.6435    3-B1
  20   1.0000      -0.393669       -10.7123    9-A1
  21   1.0000      -0.381745       -10.3878    4-B1
  22   1.0000      -0.321330        -8.7438    3-A2
  23   1.0000      -0.313973        -8.5436    5-B1
  24   1.0000      -0.287761        -7.8304    8-B2
  25   1.0000      -0.287687        -7.8284   10-A1
  26   1.0000      -0.265842        -7.2339    4-A2
  27   1.0000      -0.213504        -5.8097    9-B2
  28   1.0000      -0.170535        -4.6405   11-A1
  29   0.0000       0.046831         1.2743   12-A1
  30   0.0000       0.050489         1.3739   13-A1
  31   0.0000       0.053141         1.4460    6-B1
  32   0.0000       0.084126         2.2892   10-B2
  33   0.0000       0.090328         2.4579   14-A1
  34   0.0000       0.097614         2.6562    5-A2
  35   0.0000       0.102073         2.7775   11-B2
  36   0.0000       0.110301         3.0014   15-A1
  37   0.0000       0.111190         3.0256    7-B1
  38   0.0000       0.124210         3.3799   12-B2
  39   0.0000       0.142037         3.8650   13-B2
  40   0.0000       0.170800         4.6477    6-A2
  41   0.0000       0.176911         4.8140    8-B1
  42   0.0000       0.177552         4.8314   16-A1
  43   0.0000       0.190309         5.1786   17-A1
  44   0.0000       0.191223         5.2034    9-B1
  45   0.0000       0.193814         5.2739   14-B2
  46   0.0000       0.200906         5.4669    7-A2
  47   0.0000       0.228100         6.2069   15-B2
  48   0.0000       0.231997         6.3130   18-A1
  49   0.0000       0.237794         6.4707   10-B1
  50   0.0000       0.239947         6.5293    8-A2
  51   0.0000       0.281117         7.6496   16-B2
  52   0.0000       0.284079         7.7302   19-A1
  53   0.0000       0.295044         8.0286   20-A1
  54   0.0000       0.305641         8.3169    9-A2
  55   0.0000       0.319144         8.6844   11-B1
  56   0.0000       0.339039         9.2257   17-B2
  57   0.0000       0.340510         9.2657   21-A1
  58   0.0000       0.364455         9.9173   22-A1
  59   0.0000       0.365267         9.9394   18-B2
  60   0.0000       0.374879        10.2010   10-A2
  61   0.0000       0.388300        10.5662   23-A1
  62   0.0000       0.397311        10.8114   19-B2
  63   0.0000       0.412103        11.2139   12-B1
  64   0.0000       0.416422        11.3314   20-B2
  65   0.0000       0.417719        11.3667   11-A2
  66   0.0000       0.421081        11.4582   13-B1
  67   0.0000       0.423807        11.5324   21-B2
  68   0.0000       0.428017        11.6469   24-A1
  69   0.0000       0.430814        11.7230   25-A1
  70   0.0000       0.433060        11.7842   14-B1
  71   0.0000       0.436791        11.8857   22-B2
  72   0.0000       0.445874        12.1328   12-A2
  73   0.0000       0.470086        12.7917   15-B1
  74   0.0000       0.473208        12.8766   23-B2
  75   0.0000       0.488284        13.2869   24-B2
  76   0.0000       0.489697        13.3253   13-A2
  77   0.0000       0.500056        13.6072   26-A1
  78   0.0000       0.546700        14.8765   27-A1
  79   0.0000       0.605640        16.4803   14-A2
  80   0.0000       0.608757        16.5651   25-B2
  81   0.0000       0.623456        16.9651   28-A1
  82   0.0000       0.630566        17.1586   26-B2
  83   0.0000       0.677259        18.4292   16-B1
  84   0.0000       0.700182        19.0529   29-A1
  85   0.0000       0.724356        19.7107   27-B2
  86   0.0000       0.739207        20.1148   15-A2
  87   0.0000       0.772096        21.0098   30-A1
  88   0.0000       0.794384        21.6163   28-B2
  89   0.0000       0.807074        21.9616   31-A1
  90   0.0000       0.836839        22.7715   29-B2
  91   0.0000       0.884921        24.0799   17-B1
  92   0.0000       0.889912        24.2157   16-A2
  93   0.0000       0.897076        24.4107   18-B1
  94   0.0000       0.907467        24.6934   30-B2
  95   0.0000       0.915168        24.9030   32-A1
  96   0.0000       0.934657        25.4333   19-B1
  97   0.0000       0.941381        25.6163   33-A1
  98   0.0000       0.971310        26.4307   17-A2
  99   0.0000       1.000661        27.2294   34-A1
 100   0.0000       1.018945        27.7269   35-A1
 101   0.0000       1.021183        27.7878   31-B2
 102   0.0000       1.032958        28.1082   20-B1
 103   0.0000       1.060497        28.8576   36-A1
 104   0.0000       1.066956        29.0333   18-A2
 105   0.0000       1.087959        29.6049   21-B1
 106   0.0000       1.091492        29.7010   32-B2
 107   0.0000       1.127694        30.6861   37-A1
 108   0.0000       1.139749        31.0141   22-B1
 109   0.0000       1.149595        31.2821   33-B2
 110   0.0000       1.167678        31.7741   19-A2
 111   0.0000       1.173346        31.9284   23-B1
 112   0.0000       1.194164        32.4949   20-A2
 113   0.0000       1.196465        32.5575   34-B2
 114   0.0000       1.211205        32.9586   24-B1
 115   0.0000       1.216011        33.0893   35-B2
 116   0.0000       1.217567        33.1317   38-A1
 117   0.0000       1.232788        33.5459   39-A1
 118   0.0000       1.234140        33.5827   21-A2
 119   0.0000       1.237562        33.6758   36-B2
 120   0.0000       1.281324        34.8666   40-A1
 121   0.0000       1.298435        35.3322   37-B2
 122   0.0000       1.315327        35.7919   22-A2
 123   0.0000       1.335925        36.3524   38-B2
 124   0.0000       1.374320        37.3972   23-A2
 125   0.0000       1.438269        39.1373   41-A1
 126   0.0000       1.458415        39.6855   39-B2
 127   0.0000       1.477482        40.2043   40-B2
 128   0.0000       1.509093        41.0645   24-A2
 129   0.0000       1.511106        41.1193   42-A1
 130   0.0000       1.532721        41.7075   25-B1
 131   0.0000       1.542014        41.9603   43-A1
 132   0.0000       1.578823        42.9620   26-B1
 133   0.0000       1.615308        43.9548   41-B2
 134   0.0000       1.644291        44.7434   44-A1
 135   0.0000       1.672321        45.5062   45-A1
 136   0.0000       1.712144        46.5898   27-B1
 137   0.0000       1.712471        46.5987   25-A2
 138   0.0000       1.744913        47.4815   46-A1
 139   0.0000       1.747691        47.5571   42-B2
 140   0.0000       1.751724        47.6668   28-B1
 141   0.0000       1.776145        48.3314   26-A2
 142   0.0000       1.798978        48.9527   29-B1
 143   0.0000       1.807993        49.1980   43-B2
 144   0.0000       1.810433        49.2644   47-A1
 145   0.0000       1.883033        51.2399   44-B2
 146   0.0000       1.897649        51.6376   48-A1
 147   0.0000       1.950785        53.0835   45-B2
 148   0.0000       1.971924        53.6588   49-A1
 149   0.0000       1.984406        53.9984   46-B2
 150   0.0000       2.029895        55.2362   50-A1
 151   0.0000       2.049615        55.7729   27-A2
 152   0.0000       2.090041        56.8729   51-A1
 153   0.0000       2.124922        57.8221   30-B1
 154   0.0000       2.140052        58.2338   47-B2
 155   0.0000       2.149877        58.5011   31-B1
 156   0.0000       2.191167        59.6247   52-A1
 157   0.0000       2.202403        59.9304   28-A2
 158   0.0000       2.211725        60.1841   48-B2
 159   0.0000       2.250279        61.2332   32-B1
 160   0.0000       2.277348        61.9698   53-A1
 161   0.0000       2.286431        62.2169   33-B1
 162   0.0000       2.302088        62.6430   29-A2
 163   0.0000       2.331950        63.4556   49-B2
 164   0.0000       2.355280        64.0904   30-A2
 165   0.0000       2.364187        64.3328   54-A1
 166   0.0000       2.395181        65.1762   34-B1
 167   0.0000       2.396134        65.2021   50-B2
 168   0.0000       2.401367        65.3445   55-A1
 169   0.0000       2.402396        65.3725   31-A2
 170   0.0000       2.408882        65.5490   56-A1
 171   0.0000       2.444677        66.5230   35-B1
 172   0.0000       2.462401        67.0054   51-B2
 173   0.0000       2.467956        67.1565   36-B1
 174   0.0000       2.507152        68.2231   57-A1
 175   0.0000       2.518803        68.5401   32-A2
 176   0.0000       2.537567        69.0507   52-B2
 177   0.0000       2.584602        70.3306   37-B1
 178   0.0000       2.595545        70.6284   53-B2
 179   0.0000       2.604700        70.8775   58-A1
 180   0.0000       2.619352        71.2762   33-A2
 181   0.0000       2.670449        72.6666   54-B2
 182   0.0000       2.676097        72.8203   34-A2
 183   0.0000       2.691290        73.2337   59-A1
 184   0.0000       2.703903        73.5770   55-B2
 185   0.0000       2.711665        73.7882   60-A1
 186   0.0000       2.715436        73.8908   38-B1
 187   0.0000       2.728553        74.2477   39-B1
 188   0.0000       2.774352        75.4940   35-A2
 189   0.0000       2.778051        75.5946   61-A1
 190   0.0000       2.782174        75.7068   40-B1
 191   0.0000       2.795651        76.0735   56-B2
 192   0.0000       2.801022        76.2197   62-A1
 193   0.0000       2.833862        77.1133   57-B2
 194   0.0000       2.872934        78.1765   36-A2
 195   0.0000       2.897086        78.8337   63-A1
 196   0.0000       2.907177        79.1083   41-B1
 197   0.0000       2.931557        79.7717   64-A1
 198   0.0000       2.956868        80.4605   37-A2
 199   0.0000       2.962668        80.6183   58-B2
 200   0.0000       3.014332        82.0241   38-A2
 201   0.0000       3.018216        82.1298   42-B1
 202   0.0000       3.027617        82.3856   59-B2
 203   0.0000       3.042845        82.8000   65-A1
 204   0.0000       3.083896        83.9171   60-B2
 205   0.0000       3.102450        84.4220   39-A2
 206   0.0000       3.126942        85.0884   43-B1
 207   0.0000       3.139106        85.4194   61-B2
 208   0.0000       3.160371        85.9981   66-A1
 209   0.0000       3.160893        86.0123   62-B2
 210   0.0000       3.181711        86.5788   44-B1
 211   0.0000       3.184636        86.6583   63-B2
 212   0.0000       3.193047        86.8872   40-A2
 213   0.0000       3.204135        87.1889   41-A2
 214   0.0000       3.222932        87.7004   67-A1
 215   0.0000       3.254329        88.5548   45-B1
 216   0.0000       3.254709        88.5651   64-B2
 217   0.0000       3.260867        88.7327   68-A1
 218   0.0000       3.297849        89.7390   42-A2
 219   0.0000       3.336981        90.8039   69-A1
 220   0.0000       3.343428        90.9793   65-B2
 221   0.0000       3.382135        92.0326   70-A1
 222   0.0000       3.429224        93.3139   43-A2
 223   0.0000       3.449613        93.8687   66-B2
 224   0.0000       3.469470        94.4091   46-B1
 225   0.0000       3.478894        94.6655   47-B1
 226   0.0000       3.492416        95.0335   71-A1
 227   0.0000       3.494512        95.0905   44-A2
 228   0.0000       3.520130        95.7876   67-B2
 229   0.0000       3.589219        97.6676   48-B1
 230   0.0000       3.598151        97.9107   45-A2
 231   0.0000       3.616407        98.4074   68-B2
 232   0.0000       3.623581        98.6027   72-A1
 233   0.0000       3.663035        99.6762   73-A1
 234   0.0000       3.692087       100.4668   49-B1
 235   0.0000       3.703130       100.7673   74-A1
 236   0.0000       3.745677       101.9251   69-B2
 237   0.0000       3.758369       102.2704   75-A1
 238   0.0000       3.771188       102.6193   70-B2
 239   0.0000       3.801880       103.4544   71-B2
 240   0.0000       3.809070       103.6501   50-B1
 241   0.0000       3.832018       104.2745   76-A1
 242   0.0000       3.896624       106.0325   77-A1
 243   0.0000       3.898783       106.0913   46-A2
 244   0.0000       3.913821       106.5005   47-A2
 245   0.0000       3.953053       107.5680   51-B1
 246   0.0000       3.969278       108.0095   72-B2
 247   0.0000       3.976546       108.2073   48-A2
 248   0.0000       4.016343       109.2902   73-B2
 249   0.0000       4.031928       109.7143   52-B1
 250   0.0000       4.034150       109.7748   74-B2
 251   0.0000       4.036973       109.8516   78-A1
 252   0.0000       4.056038       110.3704   53-B1
 253   0.0000       4.095951       111.4565   49-A2
 254   0.0000       4.121586       112.1541   79-A1
 255   0.0000       4.149490       112.9134   50-A2
 256   0.0000       4.153514       113.0229   80-A1
 257   0.0000       4.163316       113.2896   54-B1
 258   0.0000       4.164811       113.3303   75-B2
 259   0.0000       4.185755       113.9002   81-A1
 260   0.0000       4.188738       113.9814   55-B1
 261   0.0000       4.200768       114.3087   51-A2
 262   0.0000       4.225726       114.9879   76-B2
 263   0.0000       4.303897       117.1150   77-B2
 264   0.0000       4.325840       117.7121   82-A1
 265   0.0000       4.350132       118.3731   52-A2
 266   0.0000       4.401893       119.7816   78-B2
 267   0.0000       4.409511       119.9889   53-A2
 268   0.0000       4.430477       120.5594   83-A1
 269   0.0000       4.439949       120.8171   56-B1
 270   0.0000       4.460289       121.3706   79-B2
 271   0.0000       4.584263       124.7441   80-B2
 272   0.0000       4.674165       127.1905   54-A2
 273   0.0000       4.749646       129.2444   84-A1
 274   0.0000       4.755841       129.4130   55-A2
 275   0.0000       4.789025       130.3160   85-A1
 276   0.0000       4.801537       130.6565   57-B1
 277   0.0000       4.886248       132.9616   56-A2
 278   0.0000       4.902386       133.4007   86-A1
 279   0.0000       4.907547       133.5411   81-B2
 280   0.0000       4.935947       134.3140   82-B2
 281   0.0000       4.962248       135.0296   58-B1
 282   0.0000       5.006189       136.2253   83-B2
 283   0.0000       5.047786       137.3572   84-B2
 284   0.0000       5.077773       138.1732   57-A2
 285   0.0000       5.132988       139.6757   58-A2
 286   0.0000       5.174377       140.8019   85-B2
 287   0.0000       5.445128       148.1695   86-B2
 288   0.0000      22.241981       605.2351   87-A1
 289   0.0000      22.345146       608.0423   88-A1
 290   0.0000      22.461147       611.1989   59-B1
 291   0.0000      22.508260       612.4809   87-B2
 292   0.0000      22.595788       614.8626   88-B2
 293   0.0000      22.613067       615.3328   89-A1
 294   0.0000      22.772501       619.6713   59-A2
 295   0.0000      22.889404       622.8523   89-B2

                 SPIN DOWN ORBITALS
  NO   OCC          E(Eh)            E(eV)    Irrep 
   0   1.0000     -10.177549      -276.9452    1-A1
   1   1.0000     -10.177543      -276.9450    1-B1
   2   1.0000     -10.177439      -276.9422    1-B2
   3   1.0000     -10.177439      -276.9422    1-A2
   4   1.0000     -10.172325      -276.8030    2-A1
   5   1.0000     -10.172140      -276.7980    2-B2
   6   1.0000     -10.161940      -276.5204    3-B2
   7   1.0000     -10.161924      -276.5200    3-A1
   8   1.0000      -0.919395       -25.0180    4-A1
   9   1.0000      -0.767200       -20.8766    4-B2
  10   1.0000      -0.706492       -19.2246    2-B1
  11   1.0000      -0.679189       -18.4817    5-A1
  12   1.0000      -0.573977       -15.6187    2-A2
  13   1.0000      -0.568089       -15.4585    5-B2
  14   1.0000      -0.543152       -14.7799    6-A1
  15   1.0000      -0.523309       -14.2400    7-A1
  16   1.0000      -0.468974       -12.7614    6-B2
  17   1.0000      -0.453592       -12.3429    8-A1
  18   1.0000      -0.448655       -12.2085    7-B2
  19   1.0000      -0.424017       -11.5381    3-B1
  20   1.0000      -0.375306       -10.2126    4-B1
  21   1.0000      -0.371608       -10.1120    9-A1
  22   1.0000      -0.312886        -8.5140    3-A2
  23   1.0000      -0.303900        -8.2695    5-B1
  24   1.0000      -0.281793        -7.6680    8-B2
  25   1.0000      -0.281344        -7.6557   10-A1
  26   1.0000      -0.264118        -7.1870    4-A2
  27   0.0000      -0.069877        -1.9014    9-B2
  28   0.0000      -0.042359        -1.1527   11-A1
  29   0.0000       0.051763         1.4086   12-A1
  30   0.0000       0.053488         1.4555   13-A1
  31   0.0000       0.054089         1.4718    6-B1
  32   0.0000       0.088618         2.4114   10-B2
  33   0.0000       0.093893         2.5550   14-A1
  34   0.0000       0.099275         2.7014    5-A2
  35   0.0000       0.105747         2.8775   11-B2
  36   0.0000       0.112214         3.0535    7-B1
  37   0.0000       0.112719         3.0672   15-A1
  38   0.0000       0.126426         3.4402   12-B2
  39   0.0000       0.158749         4.3198   13-B2
  40   0.0000       0.175877         4.7859    6-A2
  41   0.0000       0.178664         4.8617    8-B1
  42   0.0000       0.186747         5.0816   16-A1
  43   0.0000       0.195618         5.3230    9-B1
  44   0.0000       0.198257         5.3948   14-B2
  45   0.0000       0.201749         5.4899   17-A1
  46   0.0000       0.203127         5.5274    7-A2
  47   0.0000       0.234712         6.3869   18-A1
  48   0.0000       0.239304         6.5118   10-B1
  49   0.0000       0.240090         6.5332    8-A2
  50   0.0000       0.243492         6.6257   15-B2
  51   0.0000       0.289686         7.8828   19-A1
  52   0.0000       0.291262         7.9256   16-B2
  53   0.0000       0.309550         8.4233    9-A2
  54   0.0000       0.310552         8.4505   20-A1
  55   0.0000       0.320981         8.7343   11-B1
  56   0.0000       0.349029         9.4976   17-B2
  57   0.0000       0.353335         9.6147   21-A1
  58   0.0000       0.371049        10.0968   22-A1
  59   0.0000       0.378751        10.3063   18-B2
  60   0.0000       0.380664        10.3584   10-A2
  61   0.0000       0.397388        10.8135   23-A1
  62   0.0000       0.401985        10.9386   19-B2
  63   0.0000       0.416487        11.3332   12-B1
  64   0.0000       0.418234        11.3807   20-B2
  65   0.0000       0.420308        11.4372   11-A2
  66   0.0000       0.425524        11.5791   21-B2
  67   0.0000       0.426201        11.5975   13-B1
  68   0.0000       0.432497        11.7688   24-A1
  69   0.0000       0.433336        11.7917   14-B1
  70   0.0000       0.438656        11.9364   25-A1
  71   0.0000       0.442925        12.0526   22-B2
  72   0.0000       0.447538        12.1781   12-A2
  73   0.0000       0.478898        13.0315   15-B1
  74   0.0000       0.483791        13.1646   23-B2
  75   0.0000       0.492692        13.4068   13-A2
  76   0.0000       0.496748        13.5172   24-B2
  77   0.0000       0.510509        13.8917   26-A1
  78   0.0000       0.562888        15.3170   27-A1
  79   0.0000       0.607444        16.5294   14-A2
  80   0.0000       0.611646        16.6437   25-B2
  81   0.0000       0.624316        16.9885   28-A1
  82   0.0000       0.641595        17.4587   26-B2
  83   0.0000       0.678723        18.4690   16-B1
  84   0.0000       0.710807        19.3420   29-A1
  85   0.0000       0.731445        19.9036   27-B2
  86   0.0000       0.744345        20.2547   15-A2
  87   0.0000       0.779613        21.2143   30-A1
  88   0.0000       0.795986        21.6599   28-B2
  89   0.0000       0.810908        22.0659   31-A1
  90   0.0000       0.841853        22.9080   29-B2
  91   0.0000       0.889087        24.1933   17-B1
  92   0.0000       0.906007        24.6537   18-B1
  93   0.0000       0.915594        24.9146   16-A2
  94   0.0000       0.921220        25.0677   30-B2
  95   0.0000       0.922358        25.0986   32-A1
  96   0.0000       0.939240        25.5580   19-B1
  97   0.0000       0.948741        25.8166   33-A1
  98   0.0000       0.974385        26.5144   17-A2
  99   0.0000       1.013934        27.5906   34-A1
 100   0.0000       1.025425        27.9032   35-A1
 101   0.0000       1.035905        28.1884   20-B1
 102   0.0000       1.040637        28.3172   31-B2
 103   0.0000       1.068891        29.0860   18-A2
 104   0.0000       1.076522        29.2937   36-A1
 105   0.0000       1.090648        29.6780   21-B1
 106   0.0000       1.119810        30.4716   32-B2
 107   0.0000       1.132974        30.8298   37-A1
 108   0.0000       1.149329        31.2748   22-B1
 109   0.0000       1.157474        31.4965   33-B2
 110   0.0000       1.170128        31.8408   19-A2
 111   0.0000       1.177941        32.0534   23-B1
 112   0.0000       1.197423        32.5835   20-A2
 113   0.0000       1.199786        32.6478   34-B2
 114   0.0000       1.220787        33.2193   24-B1
 115   0.0000       1.223212        33.2853   38-A1
 116   0.0000       1.225500        33.3475   35-B2
 117   0.0000       1.237608        33.6770   21-A2
 118   0.0000       1.239417        33.7262   39-A1
 119   0.0000       1.240447        33.7543   36-B2
 120   0.0000       1.294642        35.2290   40-A1
 121   0.0000       1.309609        35.6363   37-B2
 122   0.0000       1.320434        35.9308   22-A2
 123   0.0000       1.344054        36.5736   38-B2
 124   0.0000       1.377132        37.4737   23-A2
 125   0.0000       1.467406        39.9302   39-B2
 126   0.0000       1.471534        40.0425   41-A1
 127   0.0000       1.482152        40.3314   40-B2
 128   0.0000       1.513404        41.1818   24-A2
 129   0.0000       1.530626        41.6504   42-A1
 130   0.0000       1.535667        41.7876   25-B1
 131   0.0000       1.557154        42.3723   43-A1
 132   0.0000       1.581446        43.0333   26-B1
 133   0.0000       1.630383        44.3650   41-B2
 134   0.0000       1.649406        44.8826   44-A1
 135   0.0000       1.679490        45.7013   45-A1
 136   0.0000       1.716101        46.6975   25-A2
 137   0.0000       1.717360        46.7318   27-B1
 138   0.0000       1.749074        47.5947   46-A1
 139   0.0000       1.754505        47.7425   28-B1
 140   0.0000       1.756629        47.8003   42-B2
 141   0.0000       1.780517        48.4503   26-A2
 142   0.0000       1.802791        49.0564   29-B1
 143   0.0000       1.818483        49.4834   47-A1
 144   0.0000       1.844632        50.1950   43-B2
 145   0.0000       1.885749        51.3138   44-B2
 146   0.0000       1.906455        51.8773   48-A1
 147   0.0000       1.962086        53.3911   45-B2
 148   0.0000       1.975922        53.7676   49-A1
 149   0.0000       1.991856        54.2012   46-B2
 150   0.0000       2.041529        55.5528   50-A1
 151   0.0000       2.061387        56.0932   27-A2
 152   0.0000       2.093817        56.9756   51-A1
 153   0.0000       2.129355        57.9427   30-B1
 154   0.0000       2.143035        58.3149   47-B2
 155   0.0000       2.153325        58.5950   31-B1
 156   0.0000       2.196911        59.7810   52-A1
 157   0.0000       2.206767        60.0492   28-A2
 158   0.0000       2.232218        60.7417   48-B2
 159   0.0000       2.253038        61.3083   32-B1
 160   0.0000       2.292280        62.3761   53-A1
 161   0.0000       2.297864        62.5280   33-B1
 162   0.0000       2.305678        62.7407   29-A2
 163   0.0000       2.343429        63.7679   49-B2
 164   0.0000       2.365502        64.3686   30-A2
 165   0.0000       2.368715        64.4560   54-A1
 166   0.0000       2.399441        65.2921   34-B1
 167   0.0000       2.402177        65.3666   50-B2
 168   0.0000       2.406788        65.4920   31-A2
 169   0.0000       2.411007        65.6068   55-A1
 170   0.0000       2.417655        65.7877   56-A1
 171   0.0000       2.449212        66.6464   35-B1
 172   0.0000       2.470103        67.2149   51-B2
 173   0.0000       2.471911        67.2641   36-B1
 174   0.0000       2.511695        68.3467   57-A1
 175   0.0000       2.523907        68.6790   32-A2
 176   0.0000       2.543373        69.2087   52-B2
 177   0.0000       2.598866        70.7187   37-B1
 178   0.0000       2.600515        70.7636   53-B2
 179   0.0000       2.619139        71.2704   58-A1
 180   0.0000       2.629121        71.5420   33-A2
 181   0.0000       2.680978        72.9531   34-A2
 182   0.0000       2.687266        73.1242   54-B2
 183   0.0000       2.704243        73.5862   59-A1
 184   0.0000       2.711412        73.7813   55-B2
 185   0.0000       2.717436        73.9452   38-B1
 186   0.0000       2.720394        74.0257   60-A1
 187   0.0000       2.734952        74.4218   39-B1
 188   0.0000       2.779965        75.6467   35-A2
 189   0.0000       2.786064        75.8126   40-B1
 190   0.0000       2.791105        75.9498   61-A1
 191   0.0000       2.809764        76.4576   56-B2
 192   0.0000       2.812633        76.5356   62-A1
 193   0.0000       2.844054        77.3906   57-B2
 194   0.0000       2.881873        78.4198   36-A2
 195   0.0000       2.909192        79.1631   63-A1
 196   0.0000       2.914862        79.3174   41-B1
 197   0.0000       2.952096        80.3306   64-A1
 198   0.0000       2.960657        80.5636   37-A2
 199   0.0000       2.973771        80.9204   58-B2
 200   0.0000       3.021934        82.2310   38-A2
 201   0.0000       3.023569        82.2755   42-B1
 202   0.0000       3.044004        82.8316   59-B2
 203   0.0000       3.055872        83.1545   65-A1
 204   0.0000       3.089571        84.0715   60-B2
 205   0.0000       3.104438        84.4761   39-A2
 206   0.0000       3.142487        85.5114   43-B1
 207   0.0000       3.162005        86.0425   61-B2
 208   0.0000       3.170463        86.2727   66-A1
 209   0.0000       3.172746        86.3348   62-B2
 210   0.0000       3.195387        86.9509   44-B1
 211   0.0000       3.197941        87.0204   63-B2
 212   0.0000       3.203660        87.1760   40-A2
 213   0.0000       3.220716        87.6401   41-A2
 214   0.0000       3.230362        87.9026   67-A1
 215   0.0000       3.265324        88.8540   64-B2
 216   0.0000       3.279820        89.2484   45-B1
 217   0.0000       3.282676        89.3262   68-A1
 218   0.0000       3.307762        90.0088   42-A2
 219   0.0000       3.350366        91.1681   65-B2
 220   0.0000       3.360399        91.4411   69-A1
 221   0.0000       3.396770        92.4308   70-A1
 222   0.0000       3.449976        93.8786   43-A2
 223   0.0000       3.473546        94.5200   66-B2
 224   0.0000       3.481814        94.7450   46-B1
 225   0.0000       3.487462        94.8987   47-B1
 226   0.0000       3.502447        95.3064   44-A2
 227   0.0000       3.513211        95.5993   71-A1
 228   0.0000       3.548511        96.5599   67-B2
 229   0.0000       3.592767        97.7642   48-B1
 230   0.0000       3.607427        98.1631   45-A2
 231   0.0000       3.627885        98.7198   68-B2
 232   0.0000       3.629632        98.7673   72-A1
 233   0.0000       3.671638        99.9104   73-A1
 234   0.0000       3.699906       100.6796   49-B1
 235   0.0000       3.716014       101.1179   74-A1
 236   0.0000       3.751427       102.0815   69-B2
 237   0.0000       3.767759       102.5259   75-A1
 238   0.0000       3.780279       102.8666   70-B2
 239   0.0000       3.807277       103.6013   71-B2
 240   0.0000       3.811162       103.7070   50-B1
 241   0.0000       3.834789       104.3499   76-A1
 242   0.0000       3.902836       106.2016   77-A1
 243   0.0000       3.904254       106.2401   46-A2
 244   0.0000       3.919938       106.6669   47-A2
 245   0.0000       3.960173       107.7618   51-B1
 246   0.0000       3.976295       108.2005   72-B2
 247   0.0000       3.979450       108.2863   48-A2
 248   0.0000       4.028949       109.6333   73-B2
 249   0.0000       4.042162       109.9928   74-B2
 250   0.0000       4.043729       110.0355   52-B1
 251   0.0000       4.062864       110.5562   78-A1
 252   0.0000       4.063542       110.5746   53-B1
 253   0.0000       4.100263       111.5738   49-A2
 254   0.0000       4.124153       112.2239   79-A1
 255   0.0000       4.155810       113.0853   50-A2
 256   0.0000       4.160726       113.2191   80-A1
 257   0.0000       4.172587       113.5419   54-B1
 258   0.0000       4.175590       113.6236   75-B2
 259   0.0000       4.191520       114.0571   81-A1
 260   0.0000       4.195830       114.1743   55-B1
 261   0.0000       4.205117       114.4270   51-A2
 262   0.0000       4.233103       115.1886   76-B2
 263   0.0000       4.307752       117.2199   77-B2
 264   0.0000       4.334562       117.9494   82-A1
 265   0.0000       4.354622       118.4953   52-A2
 266   0.0000       4.410132       120.0058   78-B2
 267   0.0000       4.425878       120.4343   53-A2
 268   0.0000       4.436357       120.7194   83-A1
 269   0.0000       4.442889       120.8972   56-B1
 270   0.0000       4.470238       121.6414   79-B2
 271   0.0000       4.595032       125.0372   80-B2
 272   0.0000       4.677349       127.2771   54-A2
 273   0.0000       4.757594       129.4607   84-A1
 274   0.0000       4.759623       129.5159   55-A2
 275   0.0000       4.805834       130.7734   85-A1
 276   0.0000       4.807077       130.8072   57-B1
 277   0.0000       4.893272       133.1527   56-A2
 278   0.0000       4.905962       133.4980   86-A1
 279   0.0000       4.916113       133.7742   81-B2
 280   0.0000       4.949024       134.6698   82-B2
 281   0.0000       4.967333       135.1680   58-B1
 282   0.0000       5.013321       136.4194   83-B2
 283   0.0000       5.052705       137.4911   84-B2
 284   0.0000       5.080266       138.2411   57-A2
 285   0.0000       5.140458       139.8790   58-A2
 286   0.0000       5.182624       141.0264   85-B2
 287   0.0000       5.448569       148.2631   86-B2
 288   0.0000      22.257249       605.6505   87-A1
 289   0.0000      22.346747       608.0859   88-A1
 290   0.0000      22.462123       611.2254   59-B1
 291   0.0000      22.522475       612.8677   87-B2
 292   0.0000      22.598417       614.9342   88-B2
 293   0.0000      22.614130       615.3618   89-A1
 294   0.0000      22.773557       619.7000   59-A2
 295   0.0000      22.890708       622.8878   89-B2

                    ********************************
                    * MULLIKEN POPULATION ANALYSIS *
                    ********************************

--------------------------------------------
MULLIKEN ATOMIC CHARGES AND SPIN POPULATIONS
--------------------------------------------
   0 H :    0.089577    0.017561
   1 C :   -0.044122   -0.006699
   2 H :    0.089577    0.017561
   3 C :   -0.044122   -0.006699
   4 H :    0.108726   -0.023466
   5 C :   -0.172563    0.971136
   6 H :    0.108726   -0.023466
   7 C :   -0.172563    0.971136
   8 H :    0.090792    0.002570
   9 C :   -0.117867    0.028035
  10 H :    0.090792    0.002570
  11 C :   -0.117867    0.028035
  12 H :    0.089577    0.017561
  13 C :   -0.044122   -0.006699
  14 H :    0.089577    0.017561
  15 C :   -0.044122   -0.006699
Sum of atomic charges         :   -0.0000000
Sum of atomic spin populations:    2.0000000

-----------------------------------------------------
MULLIKEN REDUCED ORBITAL CHARGES AND SPIN POPULATIONS
-----------------------------------------------------
CHARGE
  0 H s       :     0.888243  s :     0.888243
      pz      :     0.004253  p :     0.022179
      px      :     0.011666
      py      :     0.006259
  1 C s       :     3.210192  s :     3.210192
      pz      :     0.923976  p :     2.724940
      px      :     0.905966
      py      :     0.894997
      dz2     :     0.018880  d :     0.100101
      dxz     :     0.014075
      dyz     :     0.020322
      dx2y2   :     0.026146
      dxy     :     0.020677
      f0      :     0.001017  f :     0.008889
      f+1     :     0.001665
      f-1     :     0.000817
      f+2     :     0.001629
      f-2     :     0.001045
      f+3     :     0.001299
      f-3     :     0.001418
  2 H s       :     0.888243  s :     0.888243
      pz      :     0.004253  p :     0.022179
      px      :     0.011666
      py      :     0.006259
  3 C s       :     3.210192  s :     3.210192
      pz      :     0.923976  p :     2.724940
      px      :     0.905966
      py      :     0.894997
      dz2     :     0.018880  d :     0.100101
      dxz     :     0.014075
      dyz     :     0.020322
      dx2y2   :     0.026146
      dxy     :     0.020677
      f0      :     0.001017  f :     0.008889
      f+1     :     0.001665
      f-1     :     0.000817
      f+2     :     0.001629
      f-2     :     0.001045
      f+3     :     0.001299
      f-3     :     0.001418
  4 H s       :     0.868347  s :     0.868347
      pz      :     0.013169  p :     0.022927
      px      :     0.003643
      py      :     0.006115
  5 C s       :     3.276159  s :     3.276159
      pz      :     0.887975  p :     2.816779
      px      :     0.913657
      py      :     1.015148
      dz2     :     0.025566  d :     0.071963
      dxz     :     0.012613
      dyz     :     0.007794
      dx2y2   :     0.011607
      dxy     :     0.014383
      f0      :     0.001629  f :     0.007661
      f+1     :     0.001672
      f-1     :     0.001036
      f+2     :     0.000961
      f-2     :     0.001112
      f+3     :     0.000724
      f-3     :     0.000527
  6 H s       :     0.868347  s :     0.868347
      pz      :     0.013169  p :     0.022927
      px      :     0.003643
      py      :     0.006115
  7 C s       :     3.276159  s :     3.276159
      pz      :     0.887975  p :     2.816779
      px      :     0.913657
      py      :     1.015148
      dz2     :     0.025566  d :     0.071963
      dxz     :     0.012613
      dyz     :     0.007794
      dx2y2   :     0.011607
      dxy     :     0.014383
      f0      :     0.001629  f :     0.007661
      f+1     :     0.001672
      f-1     :     0.001036
      f+2     :     0.000961
      f-2     :     0.001112
      f+3     :     0.000724
      f-3     :     0.000527
  8 H s       :     0.886870  s :     0.886870
      pz      :     0.009889  p :     0.022338
      px      :     0.004594
      py      :     0.007855
  9 C s       :     3.318558  s :     3.318558
      pz      :     0.899394  p :     2.699134
      px      :     0.919224
      py      :     0.880516
      dz2     :     0.014335  d :     0.090497
      dxz     :     0.015529
      dyz     :     0.023302
      dx2y2   :     0.015619
      dxy     :     0.021712
      f0      :     0.001146  f :     0.009678
      f+1     :     0.001711
      f-1     :     0.001499
      f+2     :     0.001944
      f-2     :     0.001195
      f+3     :     0.001190
      f-3     :     0.000993
 10 H s       :     0.886870  s :     0.886870
      pz      :     0.009889  p :     0.022338
      px      :     0.004594
      py      :     0.007855
 11 C s       :     3.318558  s :     3.318558
      pz      :     0.899394  p :     2.699134
      px      :     0.919224
      py      :     0.880516
      dz2     :     0.014335  d :     0.090497
      dxz     :     0.015529
      dyz     :     0.023302
      dx2y2   :     0.015619
      dxy     :     0.021712
      f0      :     0.001146  f :     0.009678
      f+1     :     0.001711
      f-1     :     0.001499
      f+2     :     0.001944
      f-2     :     0.001195
      f+3     :     0.001190
      f-3     :     0.000993
 12 H s       :     0.888243  s :     0.888243
      pz      :     0.004253  p :     0.022179
      px      :     0.011666
      py      :     0.006259
 13 C s       :     3.210192  s :     3.210192
      pz      :     0.923976  p :     2.724940
      px      :     0.905966
      py      :     0.894997
      dz2     :     0.018880  d :     0.100101
      dxz     :     0.014075
      dyz     :     0.020322
      dx2y2   :     0.026146
      dxy     :     0.020677
      f0      :     0.001017  f :     0.008889
      f+1     :     0.001665
      f-1     :     0.000817
      f+2     :     0.001629
      f-2     :     0.001045
      f+3     :     0.001299
      f-3     :     0.001418
 14 H s       :     0.888243  s :     0.888243
      pz      :     0.004253  p :     0.022179
      px      :     0.011666
      py      :     0.006259
 15 C s       :     3.210192  s :     3.210192
      pz      :     0.923976  p :     2.724940
      px      :     0.905966
      py      :     0.894997
      dz2     :     0.018880  d :     0.100101
      dxz     :     0.014075
      dyz     :     0.020322
      dx2y2   :     0.026146
      dxy     :     0.020677
      f0      :     0.001017  f :     0.008889
      f+1     :     0.001665
      f-1     :     0.000817
      f+2     :     0.001629
      f-2     :     0.001045
      f+3     :     0.001299
      f-3     :     0.001418

SPIN
  0 H s       :     0.017361  s :     0.017361
      pz      :    -0.000023  p :     0.000200
      px      :     0.000002
      py      :     0.000220
  1 C s       :    -0.015861  s :    -0.015861
      pz      :    -0.017108  p :    -0.011334
      px      :    -0.012337
      py      :     0.018111
      dz2     :     0.003222  d :     0.019369
      dxz     :     0.000142
      dyz     :     0.001207
      dx2y2   :     0.009073
      dxy     :     0.005726
      f0      :     0.000107  f :     0.001128
      f+1     :     0.000295
      f-1     :     0.000089
      f+2     :     0.000113
      f-2     :     0.000128
      f+3     :     0.000226
      f-3     :     0.000169
  2 H s       :     0.017361  s :     0.017361
      pz      :    -0.000023  p :     0.000200
      px      :     0.000002
      py      :     0.000220
  3 C s       :    -0.015861  s :    -0.015861
[...]
      f-2     :    -0.000011
      f+3     :    -0.000002
      f-3     :     0.000096
 10 H s       :     0.002461  s :     0.002461
      pz      :     0.000047  p :     0.000088
      px      :    -0.000016
      py      :     0.000058
 11 C s       :    -0.001376  s :    -0.001376
      pz      :     0.016355  p :     0.028355
      px      :     0.000240
      py      :     0.011760
      dz2     :     0.000222  d :     0.000869
      dxz     :    -0.000015
      dyz     :    -0.000005
      dx2y2   :     0.000895
      dxy     :    -0.000228
      f0      :    -0.000006  f :     0.000180
      f+1     :     0.000004
      f-1     :     0.000045
      f+2     :     0.000053
      f-2     :    -0.000011
      f+3     :    -0.000002
      f-3     :     0.000096
 12 H s       :     0.017349  s :     0.017349
      pz      :    -0.000023  p :     0.000198
      px      :     0.000002
      py      :     0.000219
 13 C s       :    -0.015836  s :    -0.015836
      pz      :    -0.017116  p :    -0.011399
      px      :    -0.012351
      py      :     0.018069
      dz2     :     0.003209  d :     0.019331
      dxz     :     0.000143
      dyz     :     0.001204
      dx2y2   :     0.009069
      dxy     :     0.005706
      f0      :     0.000106  f :     0.001125
      f+1     :     0.000294
      f-1     :     0.000089
      f+2     :     0.000114
      f-2     :     0.000127
      f+3     :     0.000226
      f-3     :     0.000168
 14 H s       :     0.017349  s :     0.017349
      pz      :    -0.000023  p :     0.000198
      px      :     0.000002
      py      :     0.000219
 15 C s       :    -0.015836  s :    -0.015836
      pz      :    -0.017116  p :    -0.011399
      px      :    -0.012351
      py      :     0.018069
      dz2     :     0.003209  d :     0.019331
      dxz     :     0.000143
      dyz     :     0.001204
      dx2y2   :     0.009069
      dxy     :     0.005706
      f0      :     0.000106  f :     0.001125
      f+1     :     0.000294
      f-1     :     0.000089
      f+2     :     0.000114
      f-2     :     0.000127
      f+3     :     0.000226
      f-3     :     0.000168


                     *******************************
                     * LOEWDIN POPULATION ANALYSIS *
                     *******************************

-------------------------------------------
LOEWDIN ATOMIC CHARGES AND SPIN POPULATIONS
-------------------------------------------
   0 H :    0.127659    0.010836
   1 C :   -0.146829    0.103427
   2 H :    0.127659    0.010836
   3 C :   -0.146829    0.103427
   4 H :    0.110144    0.006669
   5 C :   -0.077488    0.739852
   6 H :    0.110144    0.006669
   7 C :   -0.077488    0.739852
   8 H :    0.123687    0.001393
   9 C :   -0.118003    0.023560
  10 H :    0.123687    0.001393
  11 C :   -0.118003    0.023560
  12 H :    0.127659    0.010836
  13 C :   -0.146829    0.103427
  14 H :    0.127659    0.010836
  15 C :   -0.146829    0.103427

----------------------------------------------------
LOEWDIN REDUCED ORBITAL CHARGES AND SPIN POPULATIONS
----------------------------------------------------
CHARGE
  0 H s       :     0.811875  s :     0.811875
      pz      :     0.012661  p :     0.060465
      px      :     0.030471
      py      :     0.017333
  1 C s       :     2.746030  s :     2.746030
      pz      :     0.970556  p :     2.882148
      px      :     0.979063
      py      :     0.932529
      dz2     :     0.095120  d :     0.463585
      dxz     :     0.078637
      dyz     :     0.076321
      dx2y2   :     0.117459
      dxy     :     0.096048
      f0      :     0.006206  f :     0.055067
      f+1     :     0.009441
      f-1     :     0.005262
      f+2     :     0.012117
      f-2     :     0.007469
      f+3     :     0.007052
      f-3     :     0.007519
  2 H s       :     0.811875  s :     0.811875
      pz      :     0.012661  p :     0.060465
      px      :     0.030471
      py      :     0.017333
  3 C s       :     2.746030  s :     2.746030
      pz      :     0.970556  p :     2.882148
      px      :     0.979063
      py      :     0.932529
      dz2     :     0.095120  d :     0.463585
      dxz     :     0.078637
      dyz     :     0.076321
      dx2y2   :     0.117459
      dxy     :     0.096048
      f0      :     0.006206  f :     0.055067
      f+1     :     0.009441
      f-1     :     0.005262
      f+2     :     0.012117
      f-2     :     0.007469
      f+3     :     0.007052
      f-3     :     0.007519
  4 H s       :     0.823086  s :     0.823086
      pz      :     0.037581  p :     0.066770
      px      :     0.011376
      py      :     0.017814
  5 C s       :     2.821826  s :     2.821826
      pz      :     0.968802  p :     2.859331
      px      :     1.010728
      py      :     0.879801
      dz2     :     0.128001  d :     0.354881
      dxz     :     0.079014
      dyz     :     0.039331
      dx2y2   :     0.053696
      dxy     :     0.054838
      f0      :     0.004849  f :     0.041450
      f+1     :     0.011003
      f-1     :     0.003291
      f+2     :     0.006106
      f-2     :     0.008570
      f+3     :     0.004184
      f-3     :     0.003448
  6 H s       :     0.823086  s :     0.823086
      pz      :     0.037581  p :     0.066770
      px      :     0.011376
      py      :     0.017814
  7 C s       :     2.821826  s :     2.821826
      pz      :     0.968802  p :     2.859331
      px      :     1.010728
      py      :     0.879801
      dz2     :     0.128001  d :     0.354881
      dxz     :     0.079014
      dyz     :     0.039331
      dx2y2   :     0.053696
      dxy     :     0.054838
      f0      :     0.004849  f :     0.041450
      f+1     :     0.011003
      f-1     :     0.003291
      f+2     :     0.006106
      f-2     :     0.008570
      f+3     :     0.004184
      f-3     :     0.003448
  8 H s       :     0.814380  s :     0.814380
      pz      :     0.027140  p :     0.061933
      px      :     0.013221
      py      :     0.021572
  9 C s       :     2.744797  s :     2.744797
      pz      :     0.951784  p :     2.858701
      px      :     0.941416
      py      :     0.965500
      dz2     :     0.080267  d :     0.455371
      dxz     :     0.082319
      dyz     :     0.122141
      dx2y2   :     0.090749
      dxy     :     0.079895
      f0      :     0.007186  f :     0.059134
      f+1     :     0.012833
      f-1     :     0.007157
      f+2     :     0.008910
      f-2     :     0.006699
      f+3     :     0.008543
      f-3     :     0.007806
 10 H s       :     0.814380  s :     0.814380
      pz      :     0.027140  p :     0.061933
      px      :     0.013221
      py      :     0.021572
 11 C s       :     2.744797  s :     2.744797
      pz      :     0.951784  p :     2.858701
      px      :     0.941416
      py      :     0.965500
      dz2     :     0.080267  d :     0.455371
      dxz     :     0.082319
      dyz     :     0.122141
      dx2y2   :     0.090749
      dxy     :     0.079895
      f0      :     0.007186  f :     0.059134
      f+1     :     0.012833
      f-1     :     0.007157
      f+2     :     0.008910
      f-2     :     0.006699
      f+3     :     0.008543
      f-3     :     0.007806
 12 H s       :     0.811875  s :     0.811875
      pz      :     0.012661  p :     0.060465
      px      :     0.030471
      py      :     0.017333
 13 C s       :     2.746030  s :     2.746030
      pz      :     0.970556  p :     2.882148
      px      :     0.979063
      py      :     0.932529
      dz2     :     0.095120  d :     0.463585
      dxz     :     0.078637
      dyz     :     0.076321
      dx2y2   :     0.117459
      dxy     :     0.096048
      f0      :     0.006206  f :     0.055067
      f+1     :     0.009441
      f-1     :     0.005262
      f+2     :     0.012117
      f-2     :     0.007469
      f+3     :     0.007052
      f-3     :     0.007519
 14 H s       :     0.811875  s :     0.811875
      pz      :     0.012661  p :     0.060465
      px      :     0.030471
      py      :     0.017333
 15 C s       :     2.746030  s :     2.746030
      pz      :     0.970556  p :     2.882148
      px      :     0.979063
      py      :     0.932529
      dz2     :     0.095120  d :     0.463585
      dxz     :     0.078637
      dyz     :     0.076321
      dx2y2   :     0.117459
      dxy     :     0.096048
      f0      :     0.006206  f :     0.055067
      f+1     :     0.009441
      f-1     :     0.005262
      f+2     :     0.012117
      f-2     :     0.007469
      f+3     :     0.007052
      f-3     :     0.007519

SPIN
  0 H s       :     0.010448  s :     0.010448
      pz      :    -0.000109  p :     0.000387
      px      :    -0.000318
      py      :     0.000813
  1 C s       :     0.005019  s :     0.005019
      pz      :    -0.005805  p :     0.023187
      px      :    -0.001426
      py      :     0.030418
      dz2     :     0.013116  d :     0.067582
      dxz     :     0.002776
      dyz     :     0.005763
      dx2y2   :     0.024730
      dxy     :     0.021196
      f0      :     0.000731  f :     0.007640
      f+1     :     0.002159
      f-1     :     0.000296
      f+2     :     0.000839
      f-2     :     0.001080
      f+3     :     0.001412
      f-3     :     0.001122
  2 H s       :     0.010448  s :     0.010448
      pz      :    -0.000109  p :     0.000387
      px      :    -0.000318
      py      :     0.000813
  3 C s       :     0.005019  s :     0.005019
      pz      :    -0.005805  p :     0.023187
      px      :    -0.001426
      py      :     0.030418
      dz2     :     0.013116  d :     0.067582
      dxz     :     0.002776
      dyz     :     0.005763
      dx2y2   :     0.024730
      dxy     :     0.021196
      f0      :     0.000731  f :     0.007640
      f+1     :     0.002159
      f-1     :     0.000296
      f+2     :     0.000839
      f-2     :     0.001080
      f+3     :     0.001412
      f-3     :     0.001122
  4 H s       :    -0.011766  s :    -0.011766
      pz      :     0.004019  p :     0.018435
      px      :     0.000203
      py      :     0.014213
  5 C s       :     0.029567  s :     0.029567
      pz      :     0.100482  p :     0.693066
      px      :     0.014101
      py      :     0.578483
      dz2     :     0.008832  d :     0.017459
      dxz     :    -0.000779
      dyz     :     0.006060
      dx2y2   :     0.004174
      dxy     :    -0.000827
      f0      :     0.000016  f :    -0.000241
      f+1     :    -0.000102
      f-1     :    -0.000345
      f+2     :     0.000409
      f-2     :    -0.000477
      f+3     :    -0.000130
      f-3     :     0.000389
  6 H s       :    -0.011766  s :    -0.011766
      pz      :     0.004019  p :     0.018435
      px      :     0.000203
      py      :     0.014213
  7 C s       :     0.029567  s :     0.029567
      pz      :     0.100482  p :     0.693066
      px      :     0.014101
      py      :     0.578483
      dz2     :     0.008832  d :     0.017459
      dxz     :    -0.000779
      dyz     :     0.006060
      dx2y2   :     0.004174
      dxy     :    -0.000827
      f0      :     0.000016  f :    -0.000241
      f+1     :    -0.000102
      f-1     :    -0.000345
      f+2     :     0.000409
      f-2     :    -0.000477
      f+3     :    -0.000130
      f-3     :     0.000389
  8 H s       :     0.001081  s :     0.001081
      pz      :     0.000291  p :     0.000313
      px      :    -0.000046
      py      :     0.000067
  9 C s       :     0.006134  s :     0.006134
      pz      :     0.008442  p :     0.011449
      px      :    -0.000265
      py      :     0.003272
      dz2     :     0.001920  d :     0.005170
      dxz     :    -0.000082
      dyz     :     0.000616
      dx2y2   :     0.003120
      dxy     :    -0.000404
      f0      :    -0.000021  f :     0.000807
      f+1     :    -0.000078
      f-1     :     0.000233
      f+2     :     0.000257
      f-2     :    -0.000046
      f+3     :    -0.000010
      f-3     :     0.000471
 10 H s       :     0.001081  s :     0.001081
      pz      :     0.000291  p :     0.000313
      px      :    -0.000046
      py      :     0.000067
 11 C s       :     0.006134  s :     0.006134
      pz      :     0.008442  p :     0.011449
      px      :    -0.000265
      py      :     0.003272
      dz2     :     0.001920  d :     0.005170
      dxz     :    -0.000082
      dyz     :     0.000616
      dx2y2   :     0.003120
      dxy     :    -0.000404
      f0      :    -0.000021  f :     0.000807
      f+1     :    -0.000078
      f-1     :     0.000233
      f+2     :     0.000257
      f-2     :    -0.000046
      f+3     :    -0.000010
      f-3     :     0.000471
 12 H s       :     0.010448  s :     0.010448
      pz      :    -0.000109  p :     0.000387
      px      :    -0.000318
      py      :     0.000813
 13 C s       :     0.005019  s :     0.005019
      pz      :    -0.005805  p :     0.023187
      px      :    -0.001426
      py      :     0.030418
      dz2     :     0.013116  d :     0.067582
      dxz     :     0.002776
      dyz     :     0.005763
      dx2y2   :     0.024730
      dxy     :     0.021196
      f0      :     0.000731  f :     0.007640
      f+1     :     0.002159
      f-1     :     0.000296
      f+2     :     0.000839
      f-2     :     0.001080
      f+3     :     0.001412
      f-3     :     0.001122
 14 H s       :     0.010448  s :     0.010448
      pz      :    -0.000109  p :     0.000387
      px      :    -0.000318
      py      :     0.000813
 15 C s       :     0.005019  s :     0.005019
      pz      :    -0.005805  p :     0.023187
      px      :    -0.001426
      py      :     0.030418
      dz2     :     0.013116  d :     0.067582
      dxz     :     0.002776
      dyz     :     0.005763
      dx2y2   :     0.024730
      dxy     :     0.021196
      f0      :     0.000731  f :     0.007640
      f+1     :     0.002159
      f-1     :     0.000296
      f+2     :     0.000839
      f-2     :     0.001080
      f+3     :     0.001412
      f-3     :     0.001122


                      *****************************
                      * MAYER POPULATION ANALYSIS *
                      *****************************

  NA   - Mulliken gross atomic population
  ZA   - Total nuclear charge
  QA   - Mulliken gross atomic charge
  VA   - Mayer's total valence
  BVA  - Mayer's bonded valence
  FA   - Mayer's free valence

  ATOM       NA         ZA         QA         VA         BVA        FA
  0 H      0.9103     1.0000     0.0897     0.9638     0.9634     0.0003
  1 C      6.0441     6.0000    -0.0441     3.8934     3.8890     0.0045
  2 H      0.9103     1.0000     0.0897     0.9638     0.9634     0.0003
  3 C      6.0441     6.0000    -0.0441     3.8934     3.8890     0.0045
  4 H      0.8912     1.0000     0.1088     0.9700     0.9690     0.0010
  5 C      6.1729     6.0000    -0.1729     3.8589     3.1593     0.6996
  6 H      0.8912     1.0000     0.1088     0.9700     0.9690     0.0010
  7 C      6.1729     6.0000    -0.1729     3.8589     3.1593     0.6996
  8 H      0.9091     1.0000     0.0909     0.9571     0.9571     0.0000
  9 C      6.1182     6.0000    -0.1182     3.8920     3.8917     0.0003
 10 H      0.9091     1.0000     0.0909     0.9571     0.9571     0.0000
 11 C      6.1182     6.0000    -0.1182     3.8920     3.8917     0.0003
 12 H      0.9103     1.0000     0.0897     0.9638     0.9634     0.0003
 13 C      6.0441     6.0000    -0.0441     3.8934     3.8890     0.0045
 14 H      0.9103     1.0000     0.0897     0.9638     0.9634     0.0003
 15 C      6.0441     6.0000    -0.0441     3.8934     3.8890     0.0045

  Mayer bond orders larger than 0.1
B(  0-H ,  1-C ) :   0.9307 B(  1-C ,  3-C ) :   0.8972 B(  1-C ,  5-C ) :   1.0489 
B(  1-C ,  9-C ) :   0.9787 B(  2-H ,  3-C ) :   0.9307 B(  3-C ,  7-C ) :   1.0489 
B(  3-C , 11-C ) :   0.9787 B(  4-H ,  5-C ) :   0.9222 B(  5-C , 13-C ) :   1.0489 
B(  6-H ,  7-C ) :   0.9222 B(  7-C , 15-C ) :   1.0489 B(  8-H ,  9-C ) :   0.9706 
B(  9-C , 11-C ) :   0.9213 B(  9-C , 13-C ) :   0.9787 B( 10-H , 11-C ) :   0.9706 
B( 11-C , 15-C ) :   0.9787 B( 12-H , 13-C ) :   0.9307 B( 13-C , 15-C ) :   0.8972 
B( 14-H , 15-C ) :   0.9307 

-------
TIMINGS
-------

Total SCF time: 0 days 0 hours 1 min 9 sec 

Total time                  ....      69.844 sec
Sum of individual times     ....      70.024 sec  (100.3%)

Fock matrix formation       ....      68.910 sec  ( 98.7%)
  Coulomb formation         ....      65.798 sec  ( 95.5% of F)
  XC integration            ....       3.094 sec  (  4.5% of F)
    Basis function eval.    ....       0.324 sec  ( 10.5% of XC)
    Density eval.           ....       0.671 sec  ( 21.7% of XC)
    XC-Functional eval.     ....       0.038 sec  (  1.2% of XC)
    XC-Potential eval.      ....       1.763 sec  ( 57.0% of XC)
Diagonalization             ....       0.135 sec  (  0.2%)
Density matrix formation    ....       0.013 sec  (  0.0%)
Population analysis         ....       0.142 sec  (  0.2%)
Initial guess               ....       0.253 sec  (  0.4%)
Orbital Transformation      ....       0.000 sec  (  0.0%)
Orbital Orthonormalization  ....       0.247 sec  (  0.4%)
DIIS solution               ....       0.079 sec  (  0.1%)
Grid generation             ....       0.493 sec  (  0.7%)
           ************************************************************
           *              Shut down parallel processing               *
           ************************************************************

-------------------------   --------------------
FINAL SINGLE POINT ENERGY      -309.296908090071
-------------------------   --------------------

                                *** OPTIMIZATION RUN DONE ***

                            ***************************************
                            *     ORCA property calculations      *
                            ***************************************

                                    ---------------------
                                    Active property flags
                                    ---------------------
   (+) Dipole Moment


------------------------------------------------------------------------------
                       ORCA ELECTRIC PROPERTIES CALCULATION
------------------------------------------------------------------------------

Dipole Moment Calculation                       ... on
Quadrupole Moment Calculation                   ... off
Polarizability Calculation                      ... off
GBWName                                         ... /home/vladimir/git/private/ORCA/C8H8/T-cubane-1/optimize/DFT/B3LYP/TZVP/./cubane.gbw
Electron density file                           ... /home/vladimir/git/private/ORCA/C8H8/T-cubane-1/optimize/DFT/B3LYP/TZVP/./cubane.scfp.tmp

-------------
DIPOLE MOMENT
-------------
                                X             Y             Z
Electronic contribution:      0.00000       0.00000      -0.16292
Nuclear contribution   :     -0.00000      -0.00000       0.07838
                        -----------------------------------------
Total Dipole Moment    :     -0.00000      -0.00000      -0.08454
                        -----------------------------------------
Magnitude (a.u.)       :      0.08454
Magnitude (Debye)      :      0.21489


Timings for individual modules:

Sum of individual times         ...      530.106 sec (=   8.835 min)
GTO integral calculation        ...        1.676 sec (=   0.028 min)   0.3 %
SCF iterations                  ...      371.665 sec (=   6.194 min)  70.1 %
SCF Gradient evaluation         ...      156.212 sec (=   2.604 min)  29.5 %
Geometry relaxation             ...        0.553 sec (=   0.009 min)   0.1 %
                             ****ORCA TERMINATED NORMALLY****
TOTAL RUN TIME: 0 days 0 hours 8 minutes 50 seconds 754 msec
