
                                 *****************
                                 * O   R   C   A *
                                 *****************

           --- An Ab Initio, DFT and Semiempirical electronic structure package ---

                  #######################################################
                  #                        -***-                        #
                  #  Department of molecular theory and spectroscopy    #
                  #              Directorship: Frank Neese              #
                  # Max Planck Institute for Chemical Energy Conversion #
                  #                  D-45470 Muelheim/Ruhr              #
                  #                       Germany                       #
                  #                                                     #
                  #                  All rights reserved                #
                  #                        -***-                        #
                  #######################################################


                         Program Version 4.0.0 -  RELEASE  -


 With contributions from (in alphabetic order):
   Daniel Aravena         : Magnetic Properties
   Michael Atanasov       : Ab Initio Ligand Field Theory
   Ute Becker             : Parallelization
   Martin Brehm           : Molecular dynamics
   Dmytro Bykov           : SCF Hessian
   Vijay G. Chilkuri      : MRCI spin determinant printing
   Dipayan Datta          : RHF DLPNO-CCSD density
   Achintya Kumar Dutta   : EOM-CC, STEOM-CC
   Dmitry Ganyushin       : Spin-Orbit,Spin-Spin,Magnetic field MRCI
   Yang Guo               : DLPNO-NEVPT2, CIM, IAO-localization
   Andreas Hansen         : Spin unrestricted coupled pair/coupled cluster methods
   Lee Huntington         : MR-EOM, pCC
   Robert Izsak           : Overlap fitted RIJCOSX, COSX-SCS-MP3, EOM
   Christian Kollmar      : KDIIS, OOCD, Brueckner-CCSD(T), CCSD density
   Simone Kossmann        : Meta GGA functionals, TD-DFT gradient, OOMP2, MP2 Hessian
   Martin Krupicka        : AUTO-CI
   Dagmar Lenk            : GEPOL surface
   Dimitrios Liakos       : Extrapolation schemes; parallel MDCI
   Dimitrios Manganas     : ROCIS; embedding schemes
   Dimitrios Pantazis     : SARC Basis sets
   Taras Petrenko         : DFT Hessian,TD-DFT gradient, ASA, ECA, R-Raman, ABS, FL, XAS/XES, NRVS
   Peter Pinski           : DLPNO-MP2
   Christoph Reimann      : Effective Core Potentials
   Marius Retegan         : Local ZFS, SOC
   Christoph Riplinger    : Optimizer, TS searches, QM/MM, DLPNO-CCSD(T), (RO)-DLPNO pert. Triples
   Tobias Risthaus        : Range-separated hybrids, TD-DFT gradient, RPA, STAB
   Michael Roemelt        : Restricted open shell CIS
   Masaaki Saitow         : Open-shell DLPNO
   Barbara Sandhoefer     : DKH picture change effects
   Kantharuban Sivalingam : CASSCF convergence, NEVPT2, FIC-MRCI
   Georgi Stoychev        : AutoAux
   Boris Wezisla          : Elementary symmetry handling
   Frank Wennmohs         : Technical directorship


 We gratefully acknowledge several colleagues who have allowed us to
 interface, adapt or use parts of their codes:
   Stefan Grimme, W. Hujo, H. Kruse,             : VdW corrections, initial TS optimization,
                  C. Bannwarth                     DFT functionals, gCP, sTDA/sTD-DF
   Ed Valeev                                     : LibInt (2-el integral package), F12 methods
   Garnet Chan, S. Sharma, J. Yang, R. Olivares  : DMRG
   Ulf Ekstrom                                   : XCFun DFT Library
   Mihaly Kallay                                 : mrcc  (arbitrary order and MRCC methods)
   Jiri Pittner, Ondrej Demel                    : Mk-CCSD
   Frank Weinhold                                : gennbo (NPA and NBO analysis)
   Christopher J. Cramer and Donald G. Truhlar   : smd solvation model


 Your calculation uses the libint2 library for the computation of 2-el integrals
 For citations please refer to: http://libint.valeyev.net

 This ORCA versions uses:
   CBLAS   interface :  Fast vector & matrix operations
   LAPACKE interface :  Fast linear algebra routines
   SCALAPACK package :  Parallel linear algebra routines


Your calculation utilizes the basis: cc-pVDZ 
       H, B-Ne : Obtained from the ccRepo (grant-hill.group.shef.ac.uk/ccrepo) Feb. 2017
                 T. H. Dunning, Jr., J. Chem. Phys. 90, 1007 (1989)
            He : Obtained from the ccRepo (grant-hill.group.shef.ac.uk/ccrepo) Feb. 2017
                 D. E. Woon, T. H. Dunning, Jr., J. Chem. Phys. 100, 2975 (1994)
  Li-Be, Na-Mg : Obtained from the ccRepo (grant-hill.group.shef.ac.uk/ccrepo) Feb. 2017
                 B. P. Prascher, D. E. Woon, K. A. Peterson, T. H. Dunning, Jr., A. K. Wilson, Theor. Chem. Acc. 128, 69 (2011)
         Al-Ar : Obtained from the ccRepo (grant-hill.group.shef.ac.uk/ccrepo) Feb. 2017
                 D. E. Woon, T. H. Dunning, Jr., J. Chem. Phys. 98, 1358 (1993)
            Ca : Obtained from the Peterson Research Group Website (tyr0.chem.wsu.edu/~kipeters) Feb. 2017
                 J. Koput, K. A. Peterson, J. Phys. Chem. 106, 9595 (2002)
         Sc-Zn : Obtained from the ccRepo (grant-hill.group.shef.ac.uk/ccrepo) Feb. 2017
                 N. B. Balabanov, K. A. Peterson, J. Chem. Phys. 123, 064107 (2005)
                 N. B. Balabanov, K. A. Peterson, J. Chem. Phys. 125, 074110 (2006)
         Ga-Kr : Obtained from the ccRepo (grant-hill.group.shef.ac.uk/ccrepo) Feb. 2017
                 A. K. Wilson, D. E. Woon, K. A. Peterson, T. H. Dunning, Jr., J. Chem. Phys. 110, 7667 (1999)

Your calculation utilizes the auxiliary basis: cc-pVDZ/C 
  H-He, B, Ne, Al-Ar, Ga-Br : Obtained from the EMSL Basis Set Exchange (bse.pnl.gov) Feb. 2017
                              F. Weigend, A. Kohn, C. Hattig, J. Chem. Phys. 116, 3175 (2002)
               Li-Be, Na-Mg : Obtained from the EMSL Basis Set Exchange (bse.pnl.gov) Feb. 2017
                              C. Haettig, Phys. Chem. Chem. Phys. 7, 59 (2005)
                        C-F : Obtained from the EMSL Basis Set Exchange (bse.pnl.gov) Feb. 2017
                              C. Haettig, Phys. Chem. Chem. Phys. 7, 59 (2005)
                              F. Weigend, A. Kohn, C. Hattig, J. Chem. Phys. 116, 3175 (2002)
                         Kr : Obtained from the TURBOMOLE 7.0 basis set library
                              F. Weigend, A. Kohn, C. Hattig, J. Chem. Phys. 116, 3175 (2002)
                              S function revised in Sep. 2009

================================================================================
                                        WARNINGS
                       Please study these warnings very carefully!
================================================================================


WARNING: Geometry optimizations can change the point-group symmetry!

Warning: TCutStore was < 0. Adjusted to Thresh (uncritical)

WARNING: your system is open-shell and RHF/RKS was chosen
  ===> : WILL SWITCH to UHF/UKS


WARNING: The frozen-core approximation for MP2-gradient calculations is turned on by default.

WARNING: Geometry Optimization
  ===> : Switching off AutoStart
         For restart on a previous wavefunction, please use MOREAD

WARNING: Post HF methods need fully converged wavefunctions
  ===> : Setting SCFConvForced true
         You can overwrite this default with %scf ConvForced false 


INFO   : the flag for use of LIBINT has been found!

================================================================================
                                       INPUT FILE
================================================================================
NAME = /home/vladimir/git/private/ORCA/C8H8/T-cubane-1/MP2/cc-pVDZ/./cubane.inp
|  1> # ================================================================
|  2> # Orca input file for cubane RI-MP2/cc-pVDZ geometry optimization
|  3> # ================================================================
|  4> ! RI-MP2 cc-pVDZ cc-pVDZ/C TightSCF TightOPT UseSym
|  5> ! PAL4
|  6> 
|  7> * xyz 0 3
|  8>   H                     2.06558205    -1.28286326     0.02211469
|  9>   C                     1.07464059    -0.80757103    -0.05079586
| 10>   H                     2.06558205     1.28286326     0.02211469
| 11>   C                     1.07464059     0.80757103    -0.05079586
| 12>   H                     0.00000000    -1.50306671    -2.05955799
| 13>   C                     0.00000000    -1.33057164    -0.97564719
| 14>   H                     0.00000000     1.50306671    -2.05955799
| 15>   C                     0.00000000     1.33057164    -0.97564719
| 16>   H                     0.00000000    -1.45938535     1.96899476
| 17>   C                     0.00000000    -0.77726259     1.10647220
| 18>   H                     0.00000000     1.45938535     1.96899476
| 19>   C                     0.00000000     0.77726259     1.10647220
| 20>   H                    -2.06558205    -1.28286326     0.02211469
| 21>   C                    -1.07464059    -0.80757103    -0.05079586
| 22>   H                    -2.06558205     1.28286326     0.02211469
| 23>   C                    -1.07464059     0.80757103    -0.05079586
| 24> *
| 25> 
| 26>                          ****END OF INPUT****
================================================================================

------------------------------------------------------------------------------
                            SYMMETRY HANDLING SETUP
------------------------------------------------------------------------------

------------------
SYMMETRY DETECTION
------------------
Preparing Data                    ... done
Detection Threshold:    SymThresh ... 1.0000e-04

Point Group will now be determined:
Moving molecule to center of mass ... done

POINT GROUP                       ... C2v

The coordinates will now be cleaned:
Moving to standard coord frame    ... done
(Changed main axis to z and one of the symmetry planes to xz plane)
Structure cleanup requested       ... yes
Selected point group              ... C2v
Cleaning Tolerance      SymThresh ... 1.0000e-04

Some missing point group data is constructed:
Constructing symmetry operations  ... done
Creating atom transfer table      ... done
Creating asymmetric unit          ... done

Cleaning coordinates              ... done

-----------------------------------------------
SYMMETRY-PERFECTED CARTESIAN COORDINATES (A.U.)
-----------------------------------------------
   0 H     3.90338438   2.42426023  -0.03074409 
   1 C     2.03077641   1.52608808   0.10703689 
   2 H     3.90338438  -2.42426023  -0.03074409 
   3 C     2.03077641  -1.52608808   0.10703689 
   4 H     0.00000000   2.84038444   3.90304718 
   5 C     0.00000000   2.51441600   1.85475261 
   6 H     0.00000000  -2.84038444   3.90304718 
   7 C     0.00000000  -2.51441600   1.85475261 
   8 H     0.00000000   2.75783864  -3.70981423 
   9 C     0.00000000   1.46881343  -2.07988281 
  10 H     0.00000000  -2.75783864  -3.70981423 
  11 C     0.00000000  -1.46881343  -2.07988281 
  12 H    -3.90338438   2.42426023  -0.03074409 
  13 C    -2.03077641   1.52608808   0.10703689 
  14 H    -3.90338438  -2.42426023  -0.03074409 
  15 C    -2.03077641  -1.52608808   0.10703689 

------------------
SYMMETRY REDUCTION
------------------
ORCA supports only abelian point groups.
It is now checked, if the determined point group is supported:
Point Group ( C2v   ) is          ... supported

(Re)building abelian point group:
Creating Character Table          ... done
Making direct product table       ... done

----------------------
ASYMMETRIC UNIT IN C2v
----------------------
  #  AT     MASS              COORDS (A.U.)             BAS
   0 H    1.0080   3.90338438   2.42426023  -0.03074409   0
   1 C   12.0110   2.03077641   1.52608808   0.10703689   0
   4 H    1.0080   0.00000000   2.84038444   3.90304718   0
   5 C   12.0110   0.00000000   2.51441600   1.85475261   0
   8 H    1.0080   0.00000000   2.75783864  -3.70981423   0
   9 C   12.0110   0.00000000   1.46881343  -2.07988281   0

----------------------
SYMMETRY ADAPTED BASIS
----------------------
The coefficients for the symmetry adapted linear combinations (SALCS)
of basis functions will now be computed:
Number of basis functions         ...   152
Preparing memory                  ... done
Constructing Gamma(red)           ... done
Reducing Gamma(red)               ... done
Constructing SALCs                ... done
Checking SALC integrity           ... nothing suspicious
Normalizing SALCs                 ... done

Storing the symmetry object:
Symmetry file                     ... /home/vladimir/git/private/ORCA/C8H8/T-cubane-1/MP2/cc-pVDZ/./cubane.sym.tmp
Writing symmetry information      ... done

                       *****************************
                       * Geometry Optimization Run *
                       *****************************

Geometry optimization settings:
Update method            Update   .... BFGS
Choice of coordinates    CoordSys .... Redundant Internals
Initial Hessian          InHess   .... Almoef's Model

Convergence Tolerances:
Energy Change            TolE     ....  1.0000e-06 Eh
Max. Gradient            TolMAXG  ....  1.0000e-04 Eh/bohr
RMS Gradient             TolRMSG  ....  3.0000e-05 Eh/bohr
Max. Displacement        TolMAXD  ....  1.0000e-03 bohr
RMS Displacement         TolRMSD  ....  6.0000e-04 bohr

------------------------------------------------------------------------------
                        ORCA OPTIMIZATION COORDINATE SETUP
------------------------------------------------------------------------------

The optimization will be done in new redundant internal coordinates
Making redundant internal coordinates   ...  (new redundants) done
Evaluating the initial hessian          ...  (Almloef) done
Evaluating the coordinates              ...  done
Calculating the B-matrix                .... done
Calculating the G-matrix                .... done
Diagonalizing the G-matrix              .... done
The first mode is                       ....  106
The number of degrees of freedom        ....   42

    -----------------------------------------------------------------
                    Redundant Internal Coordinates


    -----------------------------------------------------------------
         Definition                    Initial Value    Approx d2E/dq
    -----------------------------------------------------------------
      1. B(C   1,H   0)                  1.1014         0.345272   
      2. B(C   3,C   1)                  1.6151         0.273237   
      3. B(C   3,H   2)                  1.1014         0.345272   
      4. B(C   5,H   4)                  1.0976         0.350249   
      5. B(C   5,C   1)                  1.5112         0.400284   
      6. B(C   7,H   6)                  1.0976         0.350249   
      7. B(C   7,C   3)                  1.5112         0.400284   
      8. B(C   9,H   8)                  1.0997         0.347554   
      9. B(C   9,C   1)                  1.5796         0.311381   
     10. B(C  11,H  10)                  1.0997         0.347554   
     11. B(C  11,C   9)                  1.5545         0.341389   
     12. B(C  11,C   3)                  1.5796         0.311381   
     13. B(C  13,H  12)                  1.1014         0.345272   
     14. B(C  13,C   9)                  1.5796         0.311381   
     15. B(C  13,C   5)                  1.5112         0.400284   
     16. B(C  15,H  14)                  1.1014         0.345272   
     17. B(C  15,C  13)                  1.6151         0.273237   
     18. B(C  15,C  11)                  1.5796         0.311381   
     19. B(C  15,C   7)                  1.5112         0.400284   
     20. A(H   0,C   1,C   5)          122.0692         0.325762   
     21. A(C   5,C   1,C   9)           88.3508         0.356421   
     22. A(H   0,C   1,C   3)          115.5638         0.306159   
     23. A(H   0,C   1,C   9)          124.8803         0.312678   
     24. A(C   3,C   1,C   5)          110.2479         0.348627   
     25. A(C   3,C   1,C   9)           88.9006         0.334280   
     26. A(H   2,C   3,C  11)          124.8803         0.312678   
     27. A(C   1,C   3,C  11)           88.9006         0.334280   
     28. A(H   2,C   3,C   7)          122.0692         0.325762   
     29. A(C   1,C   3,H   2)          115.5638         0.306159   
     30. A(C   1,C   3,C   7)          110.2479         0.348627   
     31. A(C   7,C   3,C  11)           88.3508         0.356421   
     32. A(H   4,C   5,C  13)          131.2071         0.326530   
     33. A(C   1,C   5,H   4)          131.2071         0.326530   
     34. A(C   1,C   5,C  13)           90.6516         0.372063   
     35. A(H   6,C   7,C  15)          131.2071         0.326530   
     36. A(C   3,C   7,C  15)           90.6516         0.372063   
     37. A(C   3,C   7,H   6)          131.2071         0.326530   
     38. A(C  11,C   9,C  13)           91.0994         0.346959   
     39. A(H   8,C   9,C  13)          124.2466         0.313012   
     40. A(C   1,C   9,H   8)          124.2466         0.313012   
     41. A(C   1,C   9,C  13)           85.7401         0.341643   
     42. A(H   8,C   9,C  11)          128.3386         0.317726   
     43. A(C   1,C   9,C  11)           91.0994         0.346959   
     44. A(C   3,C  11,C  15)           85.7401         0.341643   
     45. A(C   9,C  11,H  10)          128.3386         0.317726   
     46. A(C   3,C  11,H  10)          124.2466         0.313012   
     47. A(C   3,C  11,C   9)           91.0994         0.346959   
     48. A(H  10,C  11,C  15)          124.2466         0.313012   
     49. A(C   9,C  11,C  15)           91.0994         0.346959   
     50. A(C   9,C  13,H  12)          124.8803         0.312678   
     51. A(C   5,C  13,H  12)          122.0692         0.325762   
     52. A(C   5,C  13,C   9)           88.3508         0.356421   
     53. A(H  12,C  13,C  15)          115.5638         0.306159   
     54. A(C   9,C  13,C  15)           88.9006         0.334280   
     55. A(C   5,C  13,C  15)          110.2479         0.348627   
     56. A(C  13,C  15,H  14)          115.5638         0.306159   
     57. A(C  11,C  15,H  14)          124.8803         0.312678   
     58. A(C   7,C  15,H  14)          122.0692         0.325762   
     59. A(C  11,C  15,C  13)           88.9006         0.334280   
     60. A(C   7,C  15,C  13)          110.2479         0.348627   
     61. A(C   7,C  15,C  11)           88.3508         0.356421   
     62. D(C   7,C   3,C   1,C   9)    -87.8359         0.006409   
     63. D(C  11,C   3,C   1,C   9)     -0.0000         0.006409   
     64. D(H   2,C   3,C   1,H   0)      0.0000         0.006409   
     65. D(C  11,C   3,C   1,C   5)     87.8359         0.006409   
     66. D(H   2,C   3,C   1,C   5)   -143.4923         0.006409   
     67. D(H   2,C   3,C   1,C   9)    128.6717         0.006409   
     68. D(C   7,C   3,C   1,H   0)    143.4923         0.006409   
     69. D(C   7,C   3,C   1,C   5)      0.0000         0.006409   
     70. D(C  11,C   3,C   1,H   0)   -128.6717         0.006409   
     71. D(C  13,C   5,C   1,C   9)     20.1257         0.011890   
     72. D(C  13,C   5,C   1,C   3)    -68.0933         0.011890   
     73. D(C  13,C   5,C   1,H   0)    151.2031         0.011890   
     74. D(H   4,C   5,C   1,C   9)    172.4597         0.011890   
     75. D(H   4,C   5,C   1,C   3)     84.2408         0.011890   
     76. D(H   4,C   5,C   1,H   0)    -56.4628         0.011890   
     77. D(C  15,C   7,C   3,C  11)    -20.1257         0.011890   
     78. D(C  15,C   7,C   3,C   1)     68.0933         0.011890   
     79. D(C  15,C   7,C   3,H   2)   -151.2031         0.011890   
     80. D(H   6,C   7,C   3,C  11)   -172.4597         0.011890   
     81. D(H   6,C   7,C   3,H   2)     56.4628         0.011890   
     82. D(H   6,C   7,C   3,C   1)    -84.2408         0.011890   
     83. D(C  11,C   9,C   1,C   3)      0.0000         0.008000   
     84. D(C  13,C   9,C   1,H   0)   -148.1331         0.008000   
     85. D(C  13,C   9,C   1,C   5)    -19.2735         0.008000   
     86. D(C  13,C   9,C   1,C   3)     91.0208         0.008000   
     87. D(C  11,C   9,C   1,H   0)    120.8461         0.008000   
     88. D(H   8,C   9,C   1,C   5)    109.9218         0.008000   
     89. D(H   8,C   9,C   1,H   0)    -18.9378         0.008000   
     90. D(C  11,C   9,C   1,C   5)   -110.2943         0.008000   
     91. D(H   8,C   9,C   1,C   3)   -139.7839         0.008000   
     92. D(C   9,C  11,C   3,C   1)      0.0000         0.008000   
     93. D(C  15,C  11,C   9,C  13)      0.0000         0.009430   
     94. D(C  15,C  11,C   9,C   1)     85.7596         0.009430   
     95. D(H  10,C  11,C   9,C  13)    137.1202         0.009430   
     96. D(H  10,C  11,C   9,H   8)      0.0000         0.009430   
     97. D(H  10,C  11,C   3,H   2)     18.9378         0.008000   
     98. D(C   3,C  11,C   9,C   1)      0.0000         0.009430   
     99. D(C  15,C  11,C   3,H   2)    148.1331         0.008000   
    100. D(C  15,C  11,C   3,C   1)    -91.0208         0.008000   
    101. D(H  10,C  11,C   3,C   7)   -109.9218         0.008000   
    102. D(C  15,C  11,C   3,C   7)     19.2735         0.008000   
    103. D(C   3,C  11,C   9,C  13)    -85.7596         0.009430   
    104. D(H  10,C  11,C   3,C   1)    139.7839         0.008000   
    105. D(H  10,C  11,C   9,C   1)   -137.1202         0.009430   
    106. D(C   9,C  11,C   3,C   7)    110.2943         0.008000   
    107. D(C  15,C  11,C   9,H   8)   -137.1202         0.009430   
    108. D(C   9,C  11,C   3,H   2)   -120.8461         0.008000   
    109. D(C   3,C  11,C   9,H   8)    137.1202         0.009430   
    110. D(C  15,C  13,C   9,H   8)    139.7839         0.008000   
    111. D(C  15,C  13,C   9,C   1)    -91.0208         0.008000   
    112. D(H  12,C  13,C   9,C  11)   -120.8461         0.008000   
    113. D(H  12,C  13,C   9,C   1)    148.1331         0.008000   
    114. D(C   5,C  13,C   9,C  11)    110.2943         0.008000   
    115. D(C   5,C  13,C   9,H   8)   -109.9218         0.008000   
    116. D(C   5,C  13,C   9,C   1)     19.2735         0.008000   
    117. D(C  15,C  13,C   5,H   4)    -84.2408         0.011890   
    118. D(C  15,C  13,C   5,C   1)     68.0933         0.011890   
    119. D(H  12,C  13,C   9,H   8)     18.9378         0.008000   
    120. D(H  12,C  13,C   5,H   4)     56.4628         0.011890   
    121. D(H  12,C  13,C   5,C   1)   -151.2031         0.011890   
    122. D(C   9,C  13,C   5,H   4)   -172.4597         0.011890   
    123. D(C  15,C  13,C   9,C  11)      0.0000         0.008000   
    124. D(C   9,C  13,C   5,C   1)    -20.1257         0.011890   
    125. D(H  14,C  15,C  13,C   9)   -128.6717         0.006409   
    126. D(H  14,C  15,C  13,C   5)    143.4923         0.006409   
    127. D(C  11,C  15,C  13,H  12)    128.6717         0.006409   
    128. D(C  11,C  15,C  13,C   9)      0.0000         0.006409   
    129. D(C  11,C  15,C  13,C   5)    -87.8359         0.006409   
    130. D(C   7,C  15,C  13,H  12)   -143.4923         0.006409   
    131. D(C   7,C  15,C  13,C   9)     87.8359         0.006409   
    132. D(H  14,C  15,C  11,H  10)    -18.9378         0.008000   
    133. D(H  14,C  15,C  11,C   9)    120.8461         0.008000   
    134. D(H  14,C  15,C  11,C   3)   -148.1331         0.008000   
    135. D(C  13,C  15,C  11,H  10)   -139.7839         0.008000   
    136. D(C  13,C  15,C  11,C   9)      0.0000         0.008000   
    137. D(C  13,C  15,C  11,C   3)     91.0208         0.008000   
    138. D(C   7,C  15,C  11,H  10)    109.9218         0.008000   
    139. D(C   7,C  15,C  13,C   5)     -0.0000         0.006409   
    140. D(C   7,C  15,C  11,C   9)   -110.2943         0.008000   
    141. D(C   7,C  15,C  11,C   3)    -19.2735         0.008000   
    142. D(H  14,C  15,C   7,H   6)    -56.4628         0.011890   
    143. D(H  14,C  15,C   7,C   3)    151.2031         0.011890   
    144. D(C  13,C  15,C   7,H   6)     84.2408         0.011890   
    145. D(C  13,C  15,C   7,C   3)    -68.0933         0.011890   
    146. D(C  11,C  15,C   7,H   6)    172.4597         0.011890   
    147. D(H  14,C  15,C  13,H  12)      0.0000         0.006409   
    148. D(C  11,C  15,C   7,C   3)     20.1257         0.011890   
    -----------------------------------------------------------------

Number of atoms                         .... 16
Number of degrees of freedom            .... 148

         *************************************************************
         *                GEOMETRY OPTIMIZATION CYCLE   1            *
         *************************************************************
---------------------------------
CARTESIAN COORDINATES (ANGSTROEM)
---------------------------------
  H      2.065582    1.282863   -0.016269
  C      1.074641    0.807571    0.056641
  H      2.065582   -1.282863   -0.016269
  C      1.074641   -0.807571    0.056641
  H      0.000000    1.503067    2.065404
  C      0.000000    1.330572    0.981493
  H      0.000000   -1.503067    2.065404
  C      0.000000   -1.330572    0.981493
  H      0.000000    1.459385   -1.963149
  C      0.000000    0.777263   -1.100627
  H      0.000000   -1.459385   -1.963149
  C      0.000000   -0.777263   -1.100627
  H     -2.065582    1.282863   -0.016269
  C     -1.074641    0.807571    0.056641
  H     -2.065582   -1.282863   -0.016269
  C     -1.074641   -0.807571    0.056641

----------------------------
CARTESIAN COORDINATES (A.U.)
----------------------------
  NO LB      ZA    FRAG     MASS         X           Y           Z
   0 H     1.0000    0     1.008    3.903384    2.424260   -0.030744
   1 C     6.0000    0    12.011    2.030776    1.526088    0.107037
   2 H     1.0000    0     1.008    3.903384   -2.424260   -0.030744
   3 C     6.0000    0    12.011    2.030776   -1.526088    0.107037
   4 H     1.0000    0     1.008    0.000000    2.840384    3.903047
   5 C     6.0000    0    12.011    0.000000    2.514416    1.854753
   6 H     1.0000    0     1.008    0.000000   -2.840384    3.903047
   7 C     6.0000    0    12.011    0.000000   -2.514416    1.854753
   8 H     1.0000    0     1.008    0.000000    2.757839   -3.709814
   9 C     6.0000    0    12.011    0.000000    1.468813   -2.079883
  10 H     1.0000    0     1.008    0.000000   -2.757839   -3.709814
  11 C     6.0000    0    12.011    0.000000   -1.468813   -2.079883
  12 H     1.0000    0     1.008   -3.903384    2.424260   -0.030744
  13 C     6.0000    0    12.011   -2.030776    1.526088    0.107037
  14 H     1.0000    0     1.008   -3.903384   -2.424260   -0.030744
  15 C     6.0000    0    12.011   -2.030776   -1.526088    0.107037

--------------------------------
INTERNAL COORDINATES (ANGSTROEM)
--------------------------------
 H      0   0   0     0.000000000000     0.00000000     0.00000000
 C      1   0   0     1.101446153630     0.00000000     0.00000000
 H      2   1   0     2.314561825974    90.14128064     0.00000000
 C      3   2   1     1.101446153630    39.01359673   180.00000000
 H      2   1   3     2.381951286970   109.61656263   120.93739764
 C      5   2   1     1.097550532564    28.50980443   131.42184170
 H      4   3   2     2.381951286970   109.61656263   239.06260236
 C      7   4   3     1.097550532564    28.50980443   228.57815830
 H      2   1   3     2.378921699862   103.41351400   244.76551246
 C      9   2   1     1.099652957173    33.28922353   164.11524274
 H      4   3   2     2.378921699862   103.41351400   115.23448754
 C     11   4   3     1.099652957173    33.28922353   195.88475726
 H      6   5   2     2.294435456487   115.64063973   163.98659070
 C     13   6   5     1.101446153630    33.92689236   224.07406462
 H      8   7   4     2.294435456487   115.64063973   196.01340930
 C     15   8   7     1.101446153630    33.92689236   135.92593538

---------------------------
INTERNAL COORDINATES (A.U.)
---------------------------
 H      0   0   0     0.000000000000     0.00000000     0.00000000
 C      1   0   0     2.081431581622     0.00000000     0.00000000
 H      2   1   0     4.373887971120    90.14128064     0.00000000
 C      3   2   1     2.081431581622    39.01359673   180.00000000
 H      2   1   3     4.501235596714   109.61656263   120.93739764
 C      5   2   1     2.074069924685    28.50980443   131.42184170
 H      4   3   2     4.501235596714   109.61656263   239.06260236
 C      7   4   3     2.074069924685    28.50980443   228.57815830
 H      2   1   3     4.495510506781   103.41351400   244.76551246
 C      9   2   1     2.078042931413    33.28922353   164.11524274
 H      4   3   2     4.495510506781   103.41351400   115.23448754
 C     11   4   3     2.078042931413    33.28922353   195.88475726
 H      6   5   2     4.335854644719   115.64063973   163.98659070
 C     13   6   5     2.081431581622    33.92689236   224.07406462
 H      8   7   4     4.335854644719   115.64063973   196.01340930
 C     15   8   7     2.081431581622    33.92689236   135.92593538

---------------------
BASIS SET INFORMATION
---------------------
There are 2 groups of distinct atoms

 Group   1 Type H   : 4s1p contracted to 2s1p pattern {31/1}
 Group   2 Type C   : 17s4p1d contracted to 3s2p1d pattern {881/31/1}

Atom   0H    basis set group =>   1
Atom   1C    basis set group =>   2
Atom   2H    basis set group =>   1
Atom   3C    basis set group =>   2
Atom   4H    basis set group =>   1
Atom   5C    basis set group =>   2
Atom   6H    basis set group =>   1
Atom   7C    basis set group =>   2
Atom   8H    basis set group =>   1
Atom   9C    basis set group =>   2
Atom  10H    basis set group =>   1
Atom  11C    basis set group =>   2
Atom  12H    basis set group =>   1
Atom  13C    basis set group =>   2
Atom  14H    basis set group =>   1
Atom  15C    basis set group =>   2

INFORMATION: There is an auxiliary basis set but the global RI flag is NOT set

-------------------------------
AUXILIARY BASIS SET INFORMATION
-------------------------------
There are 2 groups of distinct atoms

 Group   1 Type H   : 3s2p1d contracted to 3s2p1d pattern {111/11/1}
 Group   2 Type C   : 7s5p4d2f contracted to 7s5p4d2f pattern {1111111/11111/1111/11}

Atom   0H    basis set group =>   1
Atom   1C    basis set group =>   2
Atom   2H    basis set group =>   1
Atom   3C    basis set group =>   2
Atom   4H    basis set group =>   1
Atom   5C    basis set group =>   2
Atom   6H    basis set group =>   1
Atom   7C    basis set group =>   2
Atom   8H    basis set group =>   1
Atom   9C    basis set group =>   2
Atom  10H    basis set group =>   1
Atom  11C    basis set group =>   2
Atom  12H    basis set group =>   1
Atom  13C    basis set group =>   2
Atom  14H    basis set group =>   1
Atom  15C    basis set group =>   2


           ************************************************************
           *        Program running with 4 parallel MPI-processes     *
           *              working on a common directory               *
           ************************************************************
------------------------------------------------------------------------------
                           ORCA GTO INTEGRAL CALCULATION
------------------------------------------------------------------------------

                         BASIS SET STATISTICS AND STARTUP INFO

 # of primitive gaussian shells          ...  216
 # of primitive gaussian functions       ...  328
 # of contracted shells                  ...   72
 # of contracted basis functions         ...  152
 Highest angular momentum                ...    2
 Maximum contraction depth               ...    8
 Integral package used                   ... LIBINT
 Integral threshhold            Thresh   ...  2.500e-11
 Primitive cut-off              TCut     ...  2.500e-12


------------------------------ INTEGRAL EVALUATION ----------------------------


 * One electron integrals 
 Pre-screening matrix                    ... done
 Shell pair data                         ... done (   0.001 sec)



           ************************************************************
           *        Program running with 4 parallel MPI-processes     *
           *              working on a common directory               *
           ************************************************************
-------------------------------------------------------------------------------
                                 ORCA SCF
-------------------------------------------------------------------------------

------------
SCF SETTINGS
------------
Hamiltonian:
 Ab initio Hamiltonian  Method          .... Hartree-Fock(GTOs)


General Settings:
 Integral files         IntName         .... /home/vladimir/git/private/ORCA/C8H8/T-cubane-1/MP2/cc-pVDZ/./cubane
 Hartree-Fock type      HFTyp           .... UHF
 Total Charge           Charge          ....    0
 Multiplicity           Mult            ....    3
 Number of Electrons    NEL             ....   56
 Basis Dimension        Dim             ....  152
 Nuclear Repulsion      ENuc            ....    357.2184326142 Eh

 Symmetry handling      UseSym         .... ON
 Point group                           .... C2v
 Used point group                      .... C2v
 Number of irreps                      .... 4
   Irrep   A1 has   47 symmetry adapted basis functions (ofs=   0)
   Irrep   A2 has   29 symmetry adapted basis functions (ofs=  47)
   Irrep   B1 has   29 symmetry adapted basis functions (ofs=  76)
   Irrep   B2 has   47 symmetry adapted basis functions (ofs= 105)

Convergence Acceleration:
 DIIS                   CNVDIIS         .... on
   Start iteration      DIISMaxIt       ....    12
   Startup error        DIISStart       ....  0.200000
   # of expansion vecs  DIISMaxEq       ....     5
   Bias factor          DIISBfac        ....   1.050
   Max. coefficient     DIISMaxC        ....  10.000
 Newton-Raphson         CNVNR           .... off
 SOSCF                  CNVSOSCF        .... off
 Level Shifting         CNVShift        .... on
   Level shift para.    LevelShift      ....    0.2500
   Turn off err/grad.   ShiftErr        ....    0.0010
 Zerner damping         CNVZerner       .... off
 Static damping         CNVDamp         .... on
   Fraction old density DampFac         ....    0.7000
   Max. Damping (<1)    DampMax         ....    0.9800
   Min. Damping (>=0)   DampMin         ....    0.0000
   Turn off err/grad.   DampErr         ....    0.1000
 Fernandez-Rico         CNVRico         .... off

SCF Procedure:
 Maximum # iterations   MaxIter         ....   125
 SCF integral mode      SCFMode         .... Direct
   Integral package                     .... LIBINT
 Reset frequeny         DirectResetFreq ....    20
 Integral Threshold     Thresh          ....  2.500e-11 Eh
 Primitive CutOff       TCut            ....  2.500e-12 Eh

Convergence Tolerance:
 Convergence Check Mode ConvCheckMode   .... Total+1el-Energy
 Convergence forced     ConvForced      .... 1
 Energy Change          TolE            ....  1.000e-08 Eh
 1-El. energy change                    ....  1.000e-05 Eh
 DIIS Error             TolErr          ....  5.000e-07


Diagonalization of the overlap matrix:
Smallest eigenvalue                        ... 3.665e-04
Time for diagonalization                   ...    0.013 sec
Threshold for overlap eigenvalues          ... 1.000e-08
Number of eigenvalues below threshold      ... 0
Time for construction of square roots      ...    0.004 sec
Producing symmetrization matrix            ... done (   0.002 sec)
Total time needed                          ...    0.018 sec

-------------------
DFT GRID GENERATION
-------------------

General Integration Accuracy     IntAcc      ...  4.340
Radial Grid Type                 RadialGrid  ... Gauss-Chebyshev
Angular Grid (max. acc.)         AngularGrid ... Lebedev-110
Angular grid pruning method      GridPruning ... 3 (G Style)
Weight generation scheme         WeightScheme... Becke
Basis function cutoff            BFCut       ...    1.0000e-11
Integration weight cutoff        WCut        ...    1.0000e-14
Grids for H and He will be reduced by one unit

# of grid points (after initial pruning)     ...  19600 (   0.0 sec)
# of grid points (after weights+screening)   ...  17858 (   0.1 sec)
nearest neighbour list constructed           ...    0.0 sec
Grid point re-assignment to atoms done       ...    0.0 sec
Grid point division into batches done        ...    0.0 sec
Reduced shell lists constructed in    0.1 sec

Total number of grid points                  ...    17858
Total number of batches                      ...      290
Average number of points per batch           ...       61
Average number of grid points per atom       ...     1116
Average number of shells per batch           ...    62.65 (87.01%)
Average number of basis functions per batch  ...   131.11 (86.26%)
Average number of large shells per batch     ...    50.51 (80.63%)
Average number of large basis fcns per batch ...   106.51 (81.24%)
Maximum spatial batch extension              ...  20.30, 16.72, 22.36 au
Average spatial batch extension              ...   0.97,  0.97,  1.00 au

Time for grid setup =    0.126 sec

------------------------------
INITIAL GUESS: MODEL POTENTIAL
------------------------------
Loading Hartree-Fock densities                     ... done
Calculating cut-offs                               ... done
Setting up the integral package                    ... done
Initializing the effective Hamiltonian             ... done
Starting the Coulomb interaction                   ... done (   0.0 sec)
Reading the grid                                   ... done
Mapping shells                                     ... done
Starting the XC term evaluation                    ... done (   0.1 sec)
done (   0.0 sec)
Diagonalizing the Hamiltonian                      ... done (   0.0 sec)
Back transforming the eigenvectors                 ... done (   0.0 sec)
Now organizing SCF variables                       ... done
The symmetry of the initial guess is 3-B2
Irrep occupations for operator 0
    A1 -   11
    A2 -    4
    B1 -    5
    B2 -    9
Irrep occupations for operator 1
    A1 -   10
    A2 -    4
    B1 -    5
    B2 -    8
                      ------------------
                      INITIAL GUESS DONE (   0.3 sec)
                      ------------------
--------------
SCF ITERATIONS
--------------
ITER       Energy         Delta-E        Max-DP      RMS-DP      [F,P]     Damp
               ***  Starting incremental Fock matrix formation  ***
  0   -307.1144394968   0.000000000000 0.04250075  0.00118583  0.1373048 0.7000
  1   -307.2034332112  -0.088993714457 0.02269821  0.00073055  0.0764409 0.7000
                               ***Turning on DIIS***
  2   -307.2571837766  -0.053750565384 0.04168582  0.00168294  0.0458510 0.0000
  3   -306.9974833126   0.259700463996 0.01632020  0.00059540  0.0212602 0.0000
  4   -307.6276543410  -0.630171028332 0.00656955  0.00020875  0.0082048 0.0000
  5   -307.3940495535   0.233604787489 0.00415945  0.00012156  0.0023360 0.0000
  6   -307.3846703814   0.009379172035 0.00252016  0.00005730  0.0008730 0.0000
  7   -307.3854399099  -0.000769528422 0.00110298  0.00003179  0.0003999 0.0000
  8   -307.3838778061   0.001562103733 0.00068338  0.00002079  0.0001735 0.0000
  9   -307.3840252233  -0.000147417128 0.00030273  0.00000942  0.0000519 0.0000
 10   -307.3843346059  -0.000309382669 0.00017840  0.00000594  0.0000239 0.0000
 11   -307.3842506844   0.000083921524 0.00011986  0.00000440  0.0000106 0.0000
 12   -307.3842973533  -0.000046668938 0.00006803  0.00000281  0.0000065 0.0000
 13   -307.3843022734  -0.000004920060 0.00004469  0.00000159  0.0000033 0.0000
 14   -307.3843039886  -0.000001715165 0.00002218  0.00000070  0.0000012 0.0000
                            ***DIIS convergence achieved***

               *****************************************************
               *                     SUCCESS                       *
               *           SCF CONVERGED AFTER  15 CYCLES          *
               *****************************************************


----------------
TOTAL SCF ENERGY
----------------

Total Energy       :         -307.38429762 Eh           -8364.35197 eV

Components:
Nuclear Repulsion  :          357.21843261 Eh            9720.40773 eV
Electronic Energy  :         -664.60273024 Eh          -18084.75970 eV
One Electron Energy:        -1123.30482942 Eh          -30566.67839 eV
Two Electron Energy:          458.70209918 Eh           12481.91869 eV

Virial components:
Potential Energy   :         -614.44832707 Eh          -16719.98901 eV
Kinetic Energy     :          307.06402945 Eh            8355.63703 eV
Virial Ratio       :            2.00104300


---------------
SCF CONVERGENCE
---------------

  Last Energy change         ...    6.3663e-06  Tolerance :   1.0000e-08
  Last MAX-Density change    ...    8.1945e-06  Tolerance :   1.0000e-07
  Last RMS-Density change    ...    2.3932e-07  Tolerance :   5.0000e-09
  Last DIIS Error            ...    3.5837e-07  Tolerance :   5.0000e-07

             **** THE GBW FILE WAS UPDATED (/home/vladimir/git/private/ORCA/C8H8/T-cubane-1/MP2/cc-pVDZ/./cubane.gbw) ****
             **** DENSITY FILE WAS UPDATED (/home/vladimir/git/private/ORCA/C8H8/T-cubane-1/MP2/cc-pVDZ/./cubane.scfp.tmp) ****
             **** ENERGY FILE WAS UPDATED (/home/vladimir/git/private/ORCA/C8H8/T-cubane-1/MP2/cc-pVDZ/./cubane.en.tmp) ****
----------------------
UHF SPIN CONTAMINATION
----------------------

Expectation value of <S**2>     :     2.023070
Ideal value S*(S+1) for S=1.0   :     2.000000
Deviation                       :     0.023070

----------------
ORBITAL ENERGIES
----------------
                 SPIN UP ORBITALS
  NO   OCC          E(Eh)            E(eV)    Irrep 
   0   1.0000     -11.238015      -305.8019    1-A1
   1   1.0000     -11.237944      -305.8000    1-B2
   2   1.0000     -11.237388      -305.7849    1-B1
   3   1.0000     -11.237094      -305.7769    2-A1
   4   1.0000     -11.236955      -305.7731    1-A2
   5   1.0000     -11.236760      -305.7678    2-B2
   6   1.0000     -11.233596      -305.6817    3-A1
   7   1.0000     -11.233076      -305.6675    3-B2
   8   1.0000      -1.230292       -33.4779    4-A1
   9   1.0000      -1.060101       -28.8468    4-B2
  10   1.0000      -0.965628       -26.2761    2-B1
  11   1.0000      -0.952122       -25.9086    5-A1
  12   1.0000      -0.808326       -21.9957    5-B2
  13   1.0000      -0.787789       -21.4368    2-A2
  14   1.0000      -0.770762       -20.9735    6-A1
  15   1.0000      -0.703947       -19.1554    7-A1
  16   1.0000      -0.654314       -17.8048    6-B2
  17   1.0000      -0.633504       -17.2385    8-A1
  18   1.0000      -0.611952       -16.6521    7-B2
  19   1.0000      -0.574912       -15.6441    3-B1
  20   1.0000      -0.548777       -14.9330    9-A1
  21   1.0000      -0.527371       -14.3505    4-B1
  22   1.0000      -0.451223       -12.2784    3-A2
  23   1.0000      -0.440234       -11.9794    5-B1
  24   1.0000      -0.414137       -11.2692    8-B2
  25   1.0000      -0.413300       -11.2465   10-A1
  26   1.0000      -0.381661       -10.3855    4-A2
  27   1.0000      -0.371284       -10.1031    9-B2
  28   1.0000      -0.304296        -8.2803   11-A1
  29   0.0000       0.186761         5.0820   12-A1
  30   0.0000       0.200006         5.4424   13-A1
  31   0.0000       0.209161         5.6916    6-B1
  32   0.0000       0.229347         6.2408   10-B2
  33   0.0000       0.237906         6.4738   14-A1
  34   0.0000       0.254509         6.9255    5-A2
  35   0.0000       0.259757         7.0683   11-B2
  36   0.0000       0.268749         7.3130   15-A1
  37   0.0000       0.269478         7.3329   12-B2
  38   0.0000       0.275025         7.4838    7-B1
  39   0.0000       0.318138         8.6570   13-B2
  40   0.0000       0.366657         9.9772    6-A2
  41   0.0000       0.372820        10.1449    8-B1
  42   0.0000       0.400072        10.8865   14-B2
  43   0.0000       0.412528        11.2255    7-A2
  44   0.0000       0.413983        11.2651   16-A1
  45   0.0000       0.510713        13.8972   15-B2
  46   0.0000       0.515591        14.0299    8-A2
  47   0.0000       0.552275        15.0282   17-A1
  48   0.0000       0.604481        16.4488   16-B2
  49   0.0000       0.608264        16.5517   18-A1
  50   0.0000       0.610695        16.6179    9-B1
  51   0.0000       0.657877        17.9018   17-B2
  52   0.0000       0.660472        17.9724   10-B1
  53   0.0000       0.665948        18.1214   19-A1
  54   0.0000       0.684251        18.6194    9-A2
  55   0.0000       0.716040        19.4845   20-A1
  56   0.0000       0.721574        19.6350   11-B1
  57   0.0000       0.722807        19.6686   21-A1
  58   0.0000       0.736251        20.0344   18-B2
  59   0.0000       0.783321        21.3152   10-A2
  60   0.0000       0.795745        21.6533   19-B2
  61   0.0000       0.800993        21.7961   22-A1
  62   0.0000       0.801646        21.8139   12-B1
  63   0.0000       0.829682        22.5768   20-B2
  64   0.0000       0.850770        23.1506   11-A2
  65   0.0000       0.869809        23.6687   21-B2
  66   0.0000       0.873546        23.7704   12-A2
  67   0.0000       0.877527        23.8787   13-B1
  68   0.0000       0.879748        23.9392   23-A1
  69   0.0000       0.902816        24.5669   24-A1
  70   0.0000       0.916910        24.9504   25-A1
  71   0.0000       0.932539        25.3757   22-B2
  72   0.0000       0.945237        25.7212   13-A2
  73   0.0000       0.958251        26.0753   23-B2
  74   0.0000       0.959063        26.0974   14-B1
  75   0.0000       0.976731        26.5782   26-A1
  76   0.0000       1.013499        27.5787   24-B2
  77   0.0000       1.016160        27.6511   15-B1
  78   0.0000       1.095029        29.7972   27-A1
  79   0.0000       1.110324        30.2134   25-B2
  80   0.0000       1.230427        33.4816   28-A1
  81   0.0000       1.248086        33.9621   16-B1
  82   0.0000       1.263010        34.3682   26-B2
  83   0.0000       1.325009        36.0553   14-A2
  84   0.0000       1.347276        36.6612   29-A1
  85   0.0000       1.350494        36.7488   15-A2
  86   0.0000       1.380075        37.5537   27-B2
  87   0.0000       1.395391        37.9705   30-A1
  88   0.0000       1.508988        41.0616   28-B2
  89   0.0000       1.548866        42.1468   17-B1
  90   0.0000       1.578524        42.9538   16-A2
  91   0.0000       1.612758        43.8854   18-B1
  92   0.0000       1.623430        44.1758   31-A1
  93   0.0000       1.627926        44.2981   29-B2
  94   0.0000       1.639557        44.6146   32-A1
  95   0.0000       1.727249        47.0008   17-A2
  96   0.0000       1.729054        47.0499   30-B2
  97   0.0000       1.731172        47.1076   19-B1
  98   0.0000       1.733085        47.1596   33-A1
  99   0.0000       1.772179        48.2234   20-B1
 100   0.0000       1.788408        48.6650   31-B2
 101   0.0000       1.794708        48.8365   34-A1
 102   0.0000       1.849423        50.3254   21-B1
 103   0.0000       1.871710        50.9318   18-A2
 104   0.0000       1.904035        51.8114   35-A1
 105   0.0000       1.929318        52.4994   32-B2
 106   0.0000       1.936795        52.7029   22-B1
 107   0.0000       1.939641        52.7803   36-A1
 108   0.0000       1.945470        52.9389   19-A2
 109   0.0000       1.978777        53.8453   33-B2
 110   0.0000       1.983848        53.9833   23-B1
 111   0.0000       2.037561        55.4448   37-A1
 112   0.0000       2.042991        55.5926   34-B2
 113   0.0000       2.063446        56.1492   38-A1
 114   0.0000       2.064276        56.1718   39-A1
 115   0.0000       2.083327        56.6902   20-A2
 116   0.0000       2.093353        56.9630   21-A2
 117   0.0000       2.101049        57.1724   24-B1
 118   0.0000       2.149047        58.4785   22-A2
 119   0.0000       2.178277        59.2739   35-B2
 120   0.0000       2.179328        59.3025   25-B1
 121   0.0000       2.192809        59.6694   40-A1
 122   0.0000       2.231338        60.7178   36-B2
 123   0.0000       2.232418        60.7472   41-A1
 124   0.0000       2.252327        61.2889   37-B2
 125   0.0000       2.274910        61.9035   23-A2
 126   0.0000       2.277157        61.9646   26-B1
 127   0.0000       2.328365        63.3580   42-A1
 128   0.0000       2.348514        63.9063   24-A2
 129   0.0000       2.349258        63.9266   43-A1
 130   0.0000       2.362574        64.2889   27-B1
 131   0.0000       2.364009        64.3279   38-B2
 132   0.0000       2.384797        64.8936   39-B2
 133   0.0000       2.393702        65.1359   40-B2
 134   0.0000       2.411489        65.6200   25-A2
 135   0.0000       2.494019        67.8657   41-B2
 136   0.0000       2.530265        68.8520   28-B1
 137   0.0000       2.557535        69.5941   44-A1
 138   0.0000       2.576238        70.1030   26-A2
 139   0.0000       2.630907        71.5906   42-B2
 140   0.0000       2.637761        71.7771   27-A2
 141   0.0000       2.767193        75.2992   43-B2
 142   0.0000       2.767591        75.3100   45-A1
 143   0.0000       2.800932        76.2172   28-A2
 144   0.0000       2.852519        77.6210   29-B1
 145   0.0000       2.879218        78.3475   44-B2
 146   0.0000       2.951392        80.3115   46-A1
 147   0.0000       2.993563        81.4590   47-A1
 148   0.0000       3.066272        83.4375   45-B2
 149   0.0000       3.235616        88.0456   46-B2
 150   0.0000       3.367812        91.6428   29-A2
 151   0.0000       3.662203        99.6536   47-B2

                 SPIN DOWN ORBITALS
  NO   OCC          E(Eh)            E(eV)    Irrep 
   0   1.0000     -11.238189      -305.8067    1-A1
   1   1.0000     -11.238166      -305.8061    1-B1
   2   1.0000     -11.237781      -305.7956    1-B2
   3   1.0000     -11.237755      -305.7949    1-A2
   4   1.0000     -11.232441      -305.6502    2-A1
   5   1.0000     -11.231925      -305.6362    2-B2
   6   1.0000     -11.212388      -305.1046    3-B2
   7   1.0000     -11.212377      -305.1043    3-A1
   8   1.0000      -1.212652       -32.9979    4-A1
   9   1.0000      -1.019420       -27.7398    4-B2
  10   1.0000      -0.958655       -26.0863    2-B1
  11   1.0000      -0.912180       -24.8217    5-A1
  12   1.0000      -0.784994       -21.3608    2-A2
  13   1.0000      -0.768923       -20.9235    5-B2
  14   1.0000      -0.735068       -20.0022    6-A1
  15   1.0000      -0.692312       -18.8388    7-A1
  16   1.0000      -0.640106       -17.4182    6-B2
  17   1.0000      -0.606244       -16.4967    8-A1
  18   1.0000      -0.603185       -16.4135    7-B2
  19   1.0000      -0.569445       -15.4954    3-B1
  20   1.0000      -0.518176       -14.1003    4-B1
  21   1.0000      -0.494270       -13.4498    9-A1
  22   1.0000      -0.435571       -11.8525    3-A2
  23   1.0000      -0.423483       -11.5235    5-B1
  24   1.0000      -0.405266       -11.0278    8-B2
  25   1.0000      -0.402546       -10.9538   10-A1
  26   1.0000      -0.380365       -10.3503    4-A2
  27   0.0000       0.124853         3.3974    9-B2
  28   0.0000       0.142802         3.8858   11-A1
  29   0.0000       0.193107         5.2547   12-A1
  30   0.0000       0.210638         5.7318    6-B1
  31   0.0000       0.215541         5.8652   13-A1
  32   0.0000       0.236498         6.4354   10-B2
  33   0.0000       0.244265         6.6468   14-A1
  34   0.0000       0.257791         7.0149    5-A2
  35   0.0000       0.264337         7.1930   11-B2
  36   0.0000       0.276195         7.5157    7-B1
  37   0.0000       0.276502         7.5240   15-A1
  38   0.0000       0.277379         7.5479   12-B2
  39   0.0000       0.361425         9.8349   13-B2
  40   0.0000       0.376402        10.2424    6-A2
  41   0.0000       0.386721        10.5232    8-B1
  42   0.0000       0.411795        11.2055   14-B2
  43   0.0000       0.420568        11.4443    7-A2
  44   0.0000       0.436387        11.8747   16-A1
  45   0.0000       0.518661        14.1135    8-A2
  46   0.0000       0.533811        14.5257   15-B2
  47   0.0000       0.559809        15.2332   17-A1
  48   0.0000       0.615113        16.7381    9-B1
  49   0.0000       0.628789        17.1102   18-A1
  50   0.0000       0.648960        17.6591   16-B2
  51   0.0000       0.667857        18.1733   10-B1
  52   0.0000       0.678095        18.4519   17-B2
  53   0.0000       0.678963        18.4755   19-A1
  54   0.0000       0.692135        18.8340    9-A2
  55   0.0000       0.726902        19.7800   11-B1
  56   0.0000       0.738481        20.0951   20-A1
  57   0.0000       0.775417        21.1002   18-B2
  58   0.0000       0.790826        21.5195   21-A1
  59   0.0000       0.794686        21.6245   10-A2
  60   0.0000       0.802301        21.8317   19-B2
  61   0.0000       0.807080        21.9618   12-B1
  62   0.0000       0.831407        22.6237   22-A1
  63   0.0000       0.849775        23.1236   20-B2
  64   0.0000       0.852041        23.1852   11-A2
  65   0.0000       0.879070        23.9207   21-B2
  66   0.0000       0.879578        23.9345   12-A2
  67   0.0000       0.887899        24.1610   13-B1
  68   0.0000       0.902024        24.5453   23-A1
  69   0.0000       0.924620        25.1602   24-A1
  70   0.0000       0.935910        25.4674   25-A1
  71   0.0000       0.945025        25.7154   22-B2
  72   0.0000       0.950466        25.8635   13-A2
  73   0.0000       0.975937        26.5566   14-B1
  74   0.0000       0.978898        26.6372   23-B2
  75   0.0000       1.004128        27.3237   26-A1
  76   0.0000       1.020681        27.7742   15-B1
  77   0.0000       1.030165        28.0322   24-B2
  78   0.0000       1.126794        30.6616   27-A1
  79   0.0000       1.134402        30.8686   25-B2
  80   0.0000       1.241048        33.7706   28-A1
  81   0.0000       1.254681        34.1416   16-B1
  82   0.0000       1.275183        34.6995   26-B2
  83   0.0000       1.329627        36.1810   14-A2
  84   0.0000       1.353702        36.8361   29-A1
  85   0.0000       1.391216        37.8569   15-A2
  86   0.0000       1.393072        37.9074   27-B2
  87   0.0000       1.402238        38.1568   30-A1
  88   0.0000       1.527024        41.5524   28-B2
  89   0.0000       1.560620        42.4666   17-B1
  90   0.0000       1.580427        43.0056   16-A2
  91   0.0000       1.615919        43.9714   18-B1
  92   0.0000       1.638242        44.5788   31-A1
  93   0.0000       1.645301        44.7709   32-A1
  94   0.0000       1.677111        45.6365   29-B2
  95   0.0000       1.730629        47.0928   17-A2
  96   0.0000       1.733660        47.1753   30-B2
  97   0.0000       1.736266        47.2462   19-B1
  98   0.0000       1.744822        47.4790   33-A1
  99   0.0000       1.790830        48.7310   20-B1
 100   0.0000       1.799914        48.9781   34-A1
 101   0.0000       1.802483        49.0481   31-B2
 102   0.0000       1.859630        50.6031   21-B1
 103   0.0000       1.888762        51.3958   18-A2
 104   0.0000       1.911154        52.0052   35-A1
 105   0.0000       1.934659        52.6448   32-B2
 106   0.0000       1.944875        52.9227   22-B1
 107   0.0000       1.948501        53.0214   19-A2
 108   0.0000       1.958075        53.2819   36-A1
 109   0.0000       1.988241        54.1028   23-B1
 110   0.0000       1.988462        54.1088   33-B2
 111   0.0000       2.047699        55.7207   37-A1
 112   0.0000       2.051309        55.8189   34-B2
 113   0.0000       2.070414        56.3388   38-A1
 114   0.0000       2.081293        56.6349   39-A1
 115   0.0000       2.087218        56.7961   20-A2
 116   0.0000       2.099161        57.1211   21-A2
 117   0.0000       2.106819        57.3295   24-B1
 118   0.0000       2.154887        58.6374   22-A2
 119   0.0000       2.181274        59.3555   25-B1
 120   0.0000       2.200515        59.8791   40-A1
 121   0.0000       2.200983        59.8918   35-B2
 122   0.0000       2.245418        61.1009   36-B2
 123   0.0000       2.258964        61.4695   37-B2
 124   0.0000       2.268014        61.7158   41-A1
 125   0.0000       2.277491        61.9737   23-A2
 126   0.0000       2.286872        62.2290   26-B1
 127   0.0000       2.331815        63.4519   42-A1
 128   0.0000       2.358108        64.1674   24-A2
 129   0.0000       2.363387        64.3110   43-A1
 130   0.0000       2.367355        64.4190   27-B1
 131   0.0000       2.368936        64.4620   38-B2
 132   0.0000       2.391676        65.0808   39-B2
 133   0.0000       2.402271        65.3691   40-B2
 134   0.0000       2.415036        65.7165   25-A2
 135   0.0000       2.498034        67.9750   41-B2
 136   0.0000       2.538214        69.0683   28-B1
 137   0.0000       2.561064        69.6901   44-A1
 138   0.0000       2.578194        70.1562   26-A2
 139   0.0000       2.637243        71.7630   42-B2
 140   0.0000       2.645380        71.9844   27-A2
 141   0.0000       2.769851        75.3715   45-A1
 142   0.0000       2.771536        75.4173   43-B2
 143   0.0000       2.803288        76.2813   28-A2
 144   0.0000       2.854384        77.6717   29-B1
 145   0.0000       2.882764        78.4440   44-B2
 146   0.0000       2.955844        80.4326   46-A1
 147   0.0000       3.005707        81.7894   47-A1
 148   0.0000       3.075185        83.6800   45-B2
 149   0.0000       3.246580        88.3439   46-B2
 150   0.0000       3.370846        91.7254   29-A2
 151   0.0000       3.666695        99.7758   47-B2

                    ********************************
                    * MULLIKEN POPULATION ANALYSIS *
                    ********************************

--------------------------------------------
MULLIKEN ATOMIC CHARGES AND SPIN POPULATIONS
--------------------------------------------
   0 H :    0.013444    0.017014
   1 C :   -0.048437   -0.076351
   2 H :    0.013444    0.017014
   3 C :   -0.048437   -0.076351
   4 H :    0.027678   -0.056306
   5 C :    0.033358    1.145856
   6 H :    0.027678   -0.056306
   7 C :    0.033358    1.145856
   8 H :    0.004989   -0.000519
   9 C :    0.003960    0.029642
  10 H :    0.004989   -0.000519
  11 C :    0.003960    0.029642
  12 H :    0.013444    0.017014
  13 C :   -0.048437   -0.076351
  14 H :    0.013444    0.017014
  15 C :   -0.048437   -0.076351
Sum of atomic charges         :    0.0000000
Sum of atomic spin populations:    2.0000000

-----------------------------------------------------
MULLIKEN REDUCED ORBITAL CHARGES AND SPIN POPULATIONS
-----------------------------------------------------
CHARGE
  0 H s       :     0.956788  s :     0.956788
      pz      :     0.004211  p :     0.029768
      px      :     0.018231
      py      :     0.007326
  1 C s       :     3.195396  s :     3.195396
      pz      :     0.926451  p :     2.757338
      px      :     0.925749
      py      :     0.905138
      dz2     :     0.016966  d :     0.095703
      dxz     :     0.025226
      dyz     :     0.011974
      dx2y2   :     0.025578
      dxy     :     0.015958
  2 H s       :     0.956788  s :     0.956788
      pz      :     0.004211  p :     0.029768
      px      :     0.018231
      py      :     0.007326
  3 C s       :     3.195396  s :     3.195396
      pz      :     0.926451  p :     2.757338
      px      :     0.925749
      py      :     0.905138
      dz2     :     0.016966  d :     0.095703
      dxz     :     0.025226
      dyz     :     0.011974
      dx2y2   :     0.025578
      dxy     :     0.015958
  4 H s       :     0.940299  s :     0.940299
      pz      :     0.021851  p :     0.032023
      px      :     0.003992
      py      :     0.006180
  5 C s       :     3.177082  s :     3.177082
      pz      :     0.873333  p :     2.717959
      px      :     0.913143
      py      :     0.931484
      dz2     :     0.023449  d :     0.071601
      dxz     :     0.021785
      dyz     :     0.005913
      dx2y2   :     0.009054
      dxy     :     0.011399
  6 H s       :     0.940299  s :     0.940299
      pz      :     0.021851  p :     0.032023
      px      :     0.003992
      py      :     0.006180
  7 C s       :     3.177082  s :     3.177082
      pz      :     0.873333  p :     2.717959
      px      :     0.913143
      py      :     0.931484
      dz2     :     0.023449  d :     0.071601
      dxz     :     0.021785
      dyz     :     0.005913
      dx2y2   :     0.009054
      dxy     :     0.011399
  8 H s       :     0.964684  s :     0.964684
      pz      :     0.014806  p :     0.030327
      px      :     0.004470
      py      :     0.011050
  9 C s       :     3.208878  s :     3.208878
      pz      :     0.889073  p :     2.692486
      px      :     0.918825
      py      :     0.884588
      dz2     :     0.013402  d :     0.094677
      dxz     :     0.027684
      dyz     :     0.018655
      dx2y2   :     0.023969
      dxy     :     0.010967
 10 H s       :     0.964684  s :     0.964684
      pz      :     0.014806  p :     0.030327
      px      :     0.004470
      py      :     0.011050
 11 C s       :     3.208878  s :     3.208878
      pz      :     0.889073  p :     2.692486
      px      :     0.918825
      py      :     0.884588
      dz2     :     0.013402  d :     0.094677
      dxz     :     0.027684
      dyz     :     0.018655
      dx2y2   :     0.023969
      dxy     :     0.010967
 12 H s       :     0.956788  s :     0.956788
      pz      :     0.004211  p :     0.029768
      px      :     0.018231
      py      :     0.007326
 13 C s       :     3.195396  s :     3.195396
      pz      :     0.926451  p :     2.757338
      px      :     0.925749
      py      :     0.905138
      dz2     :     0.016966  d :     0.095703
      dxz     :     0.025226
      dyz     :     0.011974
      dx2y2   :     0.025578
      dxy     :     0.015958
 14 H s       :     0.956788  s :     0.956788
      pz      :     0.004211  p :     0.029768
      px      :     0.018231
      py      :     0.007326
 15 C s       :     3.195396  s :     3.195396
      pz      :     0.926451  p :     2.757338
      px      :     0.925749
      py      :     0.905138
      dz2     :     0.016966  d :     0.095703
      dxz     :     0.025226
      dyz     :     0.011974
      dx2y2   :     0.025578
      dxy     :     0.015958

SPIN
  0 H s       :     0.017452  s :     0.017452
      pz      :    -0.000075  p :    -0.000438
      px      :    -0.000256
      py      :    -0.000107
  1 C s       :    -0.017896  s :    -0.017896
      pz      :    -0.039269  p :    -0.070098
      px      :    -0.025184
      py      :    -0.005646
      dz2     :     0.001711  d :     0.011644
      dxz     :     0.001007
      dyz     :     0.000352
      dx2y2   :     0.005704
      dxy     :     0.002870
  2 H s       :     0.017452  s :     0.017452
      pz      :    -0.000075  p :    -0.000438
      px      :    -0.000256
      py      :    -0.000107
  3 C s       :    -0.017896  s :    -0.017896
      pz      :    -0.039269  p :    -0.070098
      px      :    -0.025184
      py      :    -0.005646
      dz2     :     0.001711  d :     0.011644
      dxz     :     0.001007
      dyz     :     0.000352
      dx2y2   :     0.005704
      dxy     :     0.002870
  4 H s       :    -0.062919  s :    -0.062919
      pz      :     0.001241  p :     0.006613
      px      :    -0.000027
      py      :     0.005399
  5 C s       :     0.163491  s :     0.163491
      pz      :     0.136250  p :     0.987161
      px      :     0.057991
      py      :     0.792921
      dz2     :    -0.001390  d :    -0.004796
      dxz     :    -0.000081
      dyz     :    -0.000361
      dx2y2   :    -0.002023
      dxy     :    -0.000941
  6 H s       :    -0.062919  s :    -0.062919
      pz      :     0.001241  p :     0.006613
      px      :    -0.000027
      py      :     0.005399
  7 C s       :     0.163491  s :     0.163491
      pz      :     0.136250  p :     0.987161
      px      :     0.057991
      py      :     0.792921
      dz2     :    -0.001390  d :    -0.004796
      dxz     :    -0.000081
      dyz     :    -0.000361
      dx2y2   :    -0.002023
      dxy     :    -0.000941
  8 H s       :    -0.000573  s :    -0.000573
      pz      :    -0.000024  p :     0.000054
      px      :     0.000014
      py      :     0.000064
  9 C s       :     0.007383  s :     0.007383
      pz      :     0.013365  p :     0.023208
      px      :     0.006014
      py      :     0.003828
      dz2     :    -0.000247  d :    -0.000948
      dxz     :    -0.000043
      dyz     :    -0.000400
      dx2y2   :    -0.000175
      dxy     :    -0.000082
 10 H s       :    -0.000573  s :    -0.000573
      pz      :    -0.000024  p :     0.000054
      px      :     0.000014
      py      :     0.000064
 11 C s       :     0.007383  s :     0.007383
      pz      :     0.013365  p :     0.023208
      px      :     0.006014
      py      :     0.003828
      dz2     :    -0.000247  d :    -0.000948
      dxz     :    -0.000043
      dyz     :    -0.000400
      dx2y2   :    -0.000175
      dxy     :    -0.000082
 12 H s       :     0.017452  s :     0.017452
      pz      :    -0.000075  p :    -0.000438
      px      :    -0.000256
      py      :    -0.000107
 13 C s       :    -0.017896  s :    -0.017896
      pz      :    -0.039269  p :    -0.070098
      px      :    -0.025184
      py      :    -0.005646
      dz2     :     0.001711  d :     0.011644
      dxz     :     0.001007
      dyz     :     0.000352
      dx2y2   :     0.005704
      dxy     :     0.002870
 14 H s       :     0.017452  s :     0.017452
      pz      :    -0.000075  p :    -0.000438
      px      :    -0.000256
      py      :    -0.000107
 15 C s       :    -0.017896  s :    -0.017896
      pz      :    -0.039269  p :    -0.070098
      px      :    -0.025184
      py      :    -0.005646
      dz2     :     0.001711  d :     0.011644
      dxz     :     0.001007
      dyz     :     0.000352
      dx2y2   :     0.005704
      dxy     :     0.002870


                     *******************************
                     * LOEWDIN POPULATION ANALYSIS *
                     *******************************

-------------------------------------------
LOEWDIN ATOMIC CHARGES AND SPIN POPULATIONS
-------------------------------------------
   0 H :    0.006806    0.010849
   1 C :   -0.015566    0.019552
   2 H :    0.006806    0.010849
   3 C :   -0.015566    0.019552
   4 H :   -0.004411   -0.002369
   5 C :    0.013315    0.920032
   6 H :   -0.004411   -0.002369
   7 C :    0.013315    0.920032
   8 H :    0.002023    0.000197
   9 C :    0.006592    0.021338
  10 H :    0.002023    0.000197
  11 C :    0.006592    0.021338
  12 H :    0.006806    0.010849
  13 C :   -0.015566    0.019552
  14 H :    0.006806    0.010849
  15 C :   -0.015566    0.019552

----------------------------------------------------
LOEWDIN REDUCED ORBITAL CHARGES AND SPIN POPULATIONS
----------------------------------------------------
CHARGE
  0 H s       :     0.911024  s :     0.911024
      pz      :     0.016236  p :     0.082169
      px      :     0.043129
      py      :     0.022805
  1 C s       :     2.817146  s :     2.817146
      pz      :     0.989804  p :     2.961774
      px      :     1.000800
      py      :     0.971170
      dz2     :     0.043689  d :     0.236646
      dxz     :     0.056155
      dyz     :     0.029360
      dx2y2   :     0.063700
      dxy     :     0.043742
  2 H s       :     0.911024  s :     0.911024
      pz      :     0.016236  p :     0.082169
      px      :     0.043129
      py      :     0.022805
  3 C s       :     2.817146  s :     2.817146
      pz      :     0.989804  p :     2.961774
      px      :     1.000800
      py      :     0.971170
      dz2     :     0.043689  d :     0.236646
      dxz     :     0.056155
      dyz     :     0.029360
      dx2y2   :     0.063700
      dxy     :     0.043742
  4 H s       :     0.913959  s :     0.913959
      pz      :     0.053325  p :     0.090452
      px      :     0.014779
      py      :     0.022348
  5 C s       :     2.885475  s :     2.885475
      pz      :     0.987323  p :     2.917097
      px      :     1.008372
      py      :     0.921402
      dz2     :     0.064524  d :     0.184113
      dxz     :     0.053867
      dyz     :     0.016636
      dx2y2   :     0.021172
      dxy     :     0.027914
  6 H s       :     0.913959  s :     0.913959
      pz      :     0.053325  p :     0.090452
      px      :     0.014779
      py      :     0.022348
  7 C s       :     2.885475  s :     2.885475
      pz      :     0.987323  p :     2.917097
      px      :     1.008372
      py      :     0.921402
      dz2     :     0.064524  d :     0.184113
      dxz     :     0.053867
      dyz     :     0.016636
      dx2y2   :     0.021172
      dxy     :     0.027914
  8 H s       :     0.913111  s :     0.913111
      pz      :     0.037917  p :     0.084866
      px      :     0.017084
      py      :     0.029865
  9 C s       :     2.823553  s :     2.823553
      pz      :     0.981369  p :     2.937413
      px      :     0.970778
      py      :     0.985267
      dz2     :     0.035695  d :     0.232442
      dxz     :     0.059201
      dyz     :     0.053942
      dx2y2   :     0.056538
      dxy     :     0.027067
 10 H s       :     0.913111  s :     0.913111
      pz      :     0.037917  p :     0.084866
      px      :     0.017084
      py      :     0.029865
 11 C s       :     2.823553  s :     2.823553
      pz      :     0.981369  p :     2.937413
      px      :     0.970778
      py      :     0.985267
      dz2     :     0.035695  d :     0.232442
      dxz     :     0.059201
      dyz     :     0.053942
      dx2y2   :     0.056538
      dxy     :     0.027067
 12 H s       :     0.911024  s :     0.911024
      pz      :     0.016236  p :     0.082169
      px      :     0.043129
      py      :     0.022805
 13 C s       :     2.817146  s :     2.817146
      pz      :     0.989804  p :     2.961774
      px      :     1.000800
      py      :     0.971170
      dz2     :     0.043689  d :     0.236646
      dxz     :     0.056155
      dyz     :     0.029360
      dx2y2   :     0.063700
      dxy     :     0.043742
 14 H s       :     0.911024  s :     0.911024
      pz      :     0.016236  p :     0.082169
      px      :     0.043129
      py      :     0.022805
 15 C s       :     2.817146  s :     2.817146
      pz      :     0.989804  p :     2.961774
      px      :     1.000800
      py      :     0.971170
      dz2     :     0.043689  d :     0.236646
      dxz     :     0.056155
      dyz     :     0.029360
      dx2y2   :     0.063700
      dxy     :     0.043742

SPIN
  0 H s       :     0.011716  s :     0.011716
      pz      :    -0.000598  p :    -0.000867
      px      :    -0.000915
      py      :     0.000646
  1 C s       :     0.000810  s :     0.000810
      pz      :    -0.021653  p :    -0.014402
      px      :    -0.008481
      py      :     0.015732
      dz2     :     0.005348  d :     0.033144
      dxz     :     0.003575
      dyz     :     0.002476
      dx2y2   :     0.012818
      dxy     :     0.008927
  2 H s       :     0.011716  s :     0.011716
      pz      :    -0.000598  p :    -0.000867
      px      :    -0.000915
      py      :     0.000646
  3 C s       :     0.000810  s :     0.000810
      pz      :    -0.021653  p :    -0.014402
      px      :    -0.008481
      py      :     0.015732
      dz2     :     0.005348  d :     0.033144
      dxz     :     0.003575
      dyz     :     0.002476
      dx2y2   :     0.012818
      dxy     :     0.008927
  4 H s       :    -0.030661  s :    -0.030661
      pz      :     0.007018  p :     0.028292
      px      :     0.000839
      py      :     0.020435
  5 C s       :     0.067684  s :     0.067684
      pz      :     0.098218  p :     0.857733
      px      :     0.038456
      py      :     0.721060
      dz2     :    -0.000511  d :    -0.005385
      dxz     :    -0.002701
      dyz     :     0.000866
      dx2y2   :    -0.001123
      dxy     :    -0.001916
  6 H s       :    -0.030661  s :    -0.030661
      pz      :     0.007018  p :     0.028292
      px      :     0.000839
      py      :     0.020435
  7 C s       :     0.067684  s :     0.067684
      pz      :     0.098218  p :     0.857733
      px      :     0.038456
      py      :     0.721060
      dz2     :    -0.000511  d :    -0.005385
      dxz     :    -0.002701
      dyz     :     0.000866
      dx2y2   :    -0.001123
      dxy     :    -0.001916
  8 H s       :    -0.000391  s :    -0.000391
      pz      :     0.000426  p :     0.000588
      px      :     0.000081
      py      :     0.000081
  9 C s       :     0.006487  s :     0.006487
      pz      :     0.009426  p :     0.015792
      px      :     0.003643
      py      :     0.002723
      dz2     :    -0.000044  d :    -0.000941
      dxz     :    -0.000407
      dyz     :    -0.000198
      dx2y2   :    -0.000066
      dxy     :    -0.000226
 10 H s       :    -0.000391  s :    -0.000391
      pz      :     0.000426  p :     0.000588
      px      :     0.000081
      py      :     0.000081
 11 C s       :     0.006487  s :     0.006487
      pz      :     0.009426  p :     0.015792
      px      :     0.003643
      py      :     0.002723
      dz2     :    -0.000044  d :    -0.000941
      dxz     :    -0.000407
      dyz     :    -0.000198
      dx2y2   :    -0.000066
      dxy     :    -0.000226
 12 H s       :     0.011716  s :     0.011716
      pz      :    -0.000598  p :    -0.000867
      px      :    -0.000915
      py      :     0.000646
 13 C s       :     0.000810  s :     0.000810
      pz      :    -0.021653  p :    -0.014402
      px      :    -0.008481
      py      :     0.015732
      dz2     :     0.005348  d :     0.033144
      dxz     :     0.003575
      dyz     :     0.002476
      dx2y2   :     0.012818
      dxy     :     0.008927
 14 H s       :     0.011716  s :     0.011716
      pz      :    -0.000598  p :    -0.000867
      px      :    -0.000915
      py      :     0.000646
 15 C s       :     0.000810  s :     0.000810
      pz      :    -0.021653  p :    -0.014402
      px      :    -0.008481
      py      :     0.015732
      dz2     :     0.005348  d :     0.033144
      dxz     :     0.003575
      dyz     :     0.002476
      dx2y2   :     0.012818
      dxy     :     0.008927


                      *****************************
                      * MAYER POPULATION ANALYSIS *
                      *****************************

  NA   - Mulliken gross atomic population
  ZA   - Total nuclear charge
  QA   - Mulliken gross atomic charge
  VA   - Mayer's total valence
  BVA  - Mayer's bonded valence
  FA   - Mayer's free valence

  ATOM       NA         ZA         QA         VA         BVA        FA
  0 H      0.9866     1.0000     0.0134     0.9900     0.9897     0.0003
  1 C      6.0484     6.0000    -0.0484     3.8579     3.8508     0.0071
  2 H      0.9866     1.0000     0.0134     0.9900     0.9897     0.0003
  3 C      6.0484     6.0000    -0.0484     3.8579     3.8508     0.0071
  4 H      0.9723     1.0000     0.0277     0.9925     0.9878     0.0047
  5 C      5.9666     6.0000     0.0334     3.8053     2.9299     0.8753
  6 H      0.9723     1.0000     0.0277     0.9925     0.9878     0.0047
  7 C      5.9666     6.0000     0.0334     3.8053     2.9299     0.8753
  8 H      0.9950     1.0000     0.0050     0.9977     0.9977     0.0000
  9 C      5.9960     6.0000     0.0040     3.7835     3.7831     0.0004
 10 H      0.9950     1.0000     0.0050     0.9977     0.9977     0.0000
 11 C      5.9960     6.0000     0.0040     3.7835     3.7831     0.0004
 12 H      0.9866     1.0000     0.0134     0.9900     0.9897     0.0003
 13 C      6.0484     6.0000    -0.0484     3.8579     3.8508     0.0071
 14 H      0.9866     1.0000     0.0134     0.9900     0.9897     0.0003
 15 C      6.0484     6.0000    -0.0484     3.8579     3.8508     0.0071

  Mayer bond orders larger than 0.1
B(  0-H ,  1-C ) :   0.9848 B(  1-C ,  3-C ) :   0.9579 B(  1-C ,  5-C ) :   0.9960 
B(  1-C ,  9-C ) :   0.9734 B(  2-H ,  3-C ) :   0.9848 B(  3-C ,  7-C ) :   0.9960 
B(  3-C , 11-C ) :   0.9734 B(  4-H ,  5-C ) :   0.9804 B(  5-C , 13-C ) :   0.9960 
B(  6-H ,  7-C ) :   0.9804 B(  7-C , 15-C ) :   0.9960 B(  8-H ,  9-C ) :   0.9931 
B(  9-C , 11-C ) :   0.9617 B(  9-C , 13-C ) :   0.9734 B( 10-H , 11-C ) :   0.9931 
B( 11-C , 15-C ) :   0.9734 B( 12-H , 13-C ) :   0.9848 B( 13-C , 15-C ) :   0.9579 
B( 14-H , 15-C ) :   0.9848 

-------
TIMINGS
-------

Total SCF time: 0 days 0 hours 0 min 27 sec 

Total time                  ....      27.350 sec
Sum of individual times     ....      27.288 sec  ( 99.8%)

Fock matrix formation       ....      26.894 sec  ( 98.3%)
Diagonalization             ....       0.065 sec  (  0.2%)
Density matrix formation    ....       0.005 sec  (  0.0%)
Population analysis         ....       0.013 sec  (  0.0%)
Initial guess               ....       0.149 sec  (  0.5%)
Orbital Transformation      ....       0.000 sec  (  0.0%)
Orbital Orthonormalization  ....       0.000 sec  (  0.0%)
DIIS solution               ....       0.035 sec  (  0.1%)


           ************************************************************
           *        Program running with 4 parallel MPI-processes     *
           *              working on a common directory               *
           ************************************************************

------------------------------------------------------------------------------
                                ORCA  MP2 
------------------------------------------------------------------------------

Freezing NCore=16 chemical core electrons

----------------------
RI-MP2 ENERGY+GRADIENT
----------------------
Dimension of the basis                    ...  152
Memory devoted to MP2                     ...  256 MB   
Data format for buffers                   ... DOUBLE
Compression type for matrix containers    ... UNCOMPRESSED
Overall scaling of the MP2 energy         ...   1.000e+00
Calculating two index integrals           ... done (    0.008 sec)
Cholesky decomposition of the V-matrix    ... done
Cholesky decomposition of V**-1           ... done (    0.015 sec)

-----------------
RI-TRANSFORMATION (AUX index driven)
-----------------

Dimension of the orbital-basis         ... 152
Dimension of the aux-basis             ... 560
Transformation of internal MOs         ...    0-  28
Transformation of internal/external MOs...    0-  28 to   29- 151
Number Format for Storage              ... Double (8 Byte)
Integral mode                          ... Direct

First Phase: integral generation and transformation of MO indices
  Aux angular momentum 0               ... done (    0.028 sec)
  Aux angular momentum 1               ... done (    0.039 sec)
  Aux angular momentum 2               ... done (    0.032 sec)
  Aux angular momentum 3               ... done (    0.018 sec)
Closing buffer VIJ ( 0.00 GB; CompressionRatio= 1.00)
Closing buffer VIA ( 0.00 GB; CompressionRatio= 1.00)
  Phase 1 completed in     0.173 sec
Second Phase: sorting and transformation of aux index

IJ-Transformation
Memory available                       ... 247 MB 
[...]
      dxy     :     0.003113
  2 H s       :     0.014227  s :     0.014227
      pz      :     0.000010  p :     0.000006
      px      :    -0.000067
      py      :     0.000063
  3 C s       :    -0.005130  s :    -0.005130
      pz      :    -0.015058  p :    -0.011806
      px      :    -0.011756
      py      :     0.015008
      dz2     :     0.001321  d :     0.011036
      dxz     :     0.000273
      dyz     :     0.000642
      dx2y2   :     0.005687
      dxy     :     0.003113
  4 H s       :    -0.037163  s :    -0.037163
      pz      :     0.000775  p :     0.006066
      px      :    -0.000129
      py      :     0.005420
  5 C s       :     0.117091  s :     0.117091
      pz      :     0.110725  p :     0.880588
      px      :     0.026050
      py      :     0.743812
      dz2     :    -0.000051  d :     0.003773
      dxz     :     0.000878
      dyz     :     0.001794
      dx2y2   :     0.000195
      dxy     :     0.000957
  6 H s       :    -0.037163  s :    -0.037163
      pz      :     0.000775  p :     0.006066
      px      :    -0.000129
      py      :     0.005420
  7 C s       :     0.117091  s :     0.117091
      pz      :     0.110725  p :     0.880588
      px      :     0.026050
      py      :     0.743812
      dz2     :    -0.000051  d :     0.003773
      dxz     :     0.000878
      dyz     :     0.001794
      dx2y2   :     0.000195
      dxy     :     0.000957
  8 H s       :     0.002138  s :     0.002138
      pz      :    -0.000063  p :    -0.000089
      px      :    -0.000047
      py      :     0.000020
  9 C s       :     0.004192  s :     0.004192
      pz      :     0.007880  p :     0.006682
      px      :    -0.006010
      py      :     0.004812
      dz2     :     0.000007  d :     0.000057
      dxz     :     0.000172
      dyz     :    -0.000125
      dx2y2   :     0.000161
      dxy     :    -0.000158
 10 H s       :     0.002138  s :     0.002138
      pz      :    -0.000063  p :    -0.000089
      px      :    -0.000047
      py      :     0.000020
 11 C s       :     0.004192  s :     0.004192
      pz      :     0.007880  p :     0.006682
      px      :    -0.006010
      py      :     0.004812
      dz2     :     0.000007  d :     0.000057
      dxz     :     0.000172
      dyz     :    -0.000125
      dx2y2   :     0.000161
      dxy     :    -0.000158
 12 H s       :     0.014227  s :     0.014227
      pz      :     0.000010  p :     0.000006
      px      :    -0.000067
      py      :     0.000063
 13 C s       :    -0.005130  s :    -0.005130
      pz      :    -0.015058  p :    -0.011806
      px      :    -0.011756
      py      :     0.015008
      dz2     :     0.001321  d :     0.011036
      dxz     :     0.000273
      dyz     :     0.000642
      dx2y2   :     0.005687
      dxy     :     0.003113
 14 H s       :     0.014227  s :     0.014227
      pz      :     0.000010  p :     0.000006
      px      :    -0.000067
      py      :     0.000063
 15 C s       :    -0.005130  s :    -0.005130
      pz      :    -0.015058  p :    -0.011806
      px      :    -0.011756
      py      :     0.015008
      dz2     :     0.001321  d :     0.011036
      dxz     :     0.000273
      dyz     :     0.000642
      dx2y2   :     0.005687
      dxy     :     0.003113


                     *******************************
                     * LOEWDIN POPULATION ANALYSIS *
                     *******************************

-----------------------------------------
LOEWDIN ATOMIC CHARGES AND SPIN DENSITIES
-----------------------------------------
   0 H :    0.012889    0.011177
   1 C :   -0.021494    0.059528
   2 H :    0.012889    0.011177
   3 C :   -0.021494    0.059528
   4 H :    0.000293    0.008903
   5 C :    0.008243    0.835379
   6 H :    0.000293    0.008903
   7 C :    0.008243    0.835379
   8 H :    0.007120    0.001395
   9 C :    0.001555    0.012911
  10 H :    0.007120    0.001395
  11 C :    0.001555    0.012911
  12 H :    0.012889    0.011177
  13 C :   -0.021494    0.059528
  14 H :    0.012889    0.011177
  15 C :   -0.021494    0.059528

--------------------------------------------------
LOEWDIN REDUCED ORBITAL CHARGES AND SPIN DENSITIES
--------------------------------------------------
CHARGE
  0 H s       :     0.897661  s :     0.897661
      pz      :     0.018595  p :     0.089451
      px      :     0.045689
      py      :     0.025167
  1 C s       :     2.822417  s :     2.822417
      pz      :     0.988108  p :     2.947859
      px      :     0.996372
      py      :     0.963379
      dz2     :     0.046262  d :     0.251218
      dxz     :     0.056339
      dyz     :     0.034265
      dx2y2   :     0.066076
      dxy     :     0.048276
  2 H s       :     0.897661  s :     0.897661
      pz      :     0.018595  p :     0.089451
      px      :     0.045689
      py      :     0.025167
  3 C s       :     2.822417  s :     2.822417
      pz      :     0.988108  p :     2.947859
      px      :     0.996372
      py      :     0.963379
      dz2     :     0.046262  d :     0.251218
      dxz     :     0.056339
      dyz     :     0.034265
      dx2y2   :     0.066076
      dxy     :     0.048276
  4 H s       :     0.902734  s :     0.902734
      pz      :     0.056010  p :     0.096973
      px      :     0.017119
      py      :     0.023844
  5 C s       :     2.891533  s :     2.891533
      pz      :     0.981520  p :     2.901140
      px      :     1.000427
      py      :     0.919192
      dz2     :     0.066803  d :     0.199084
      dxz     :     0.055447
      dyz     :     0.021290
      dx2y2   :     0.024132
      dxy     :     0.031412
  6 H s       :     0.902734  s :     0.902734
      pz      :     0.056010  p :     0.096973
      px      :     0.017119
      py      :     0.023844
  7 C s       :     2.891533  s :     2.891533
      pz      :     0.981520  p :     2.901140
      px      :     1.000427
      py      :     0.919192
      dz2     :     0.066803  d :     0.199084
      dxz     :     0.055447
      dyz     :     0.021290
      dx2y2   :     0.024132
      dxy     :     0.031412
  8 H s       :     0.900719  s :     0.900719
      pz      :     0.040380  p :     0.092161
      px      :     0.019406
      py      :     0.032374
  9 C s       :     2.828568  s :     2.828568
      pz      :     0.974618  p :     2.923862
      px      :     0.967833
      py      :     0.981411
      dz2     :     0.040682  d :     0.246015
      dxz     :     0.058913
      dyz     :     0.057409
      dx2y2   :     0.056589
      dxy     :     0.032422
 10 H s       :     0.900719  s :     0.900719
      pz      :     0.040380  p :     0.092161
      px      :     0.019406
      py      :     0.032374
 11 C s       :     2.828568  s :     2.828568
      pz      :     0.974618  p :     2.923862
      px      :     0.967833
      py      :     0.981411
      dz2     :     0.040682  d :     0.246015
      dxz     :     0.058913
      dyz     :     0.057409
      dx2y2   :     0.056589
      dxy     :     0.032422
 12 H s       :     0.897661  s :     0.897661
      pz      :     0.018595  p :     0.089451
      px      :     0.045689
      py      :     0.025167
 13 C s       :     2.822417  s :     2.822417
      pz      :     0.988108  p :     2.947859
      px      :     0.996372
      py      :     0.963379
      dz2     :     0.046262  d :     0.251218
      dxz     :     0.056339
      dyz     :     0.034265
      dx2y2   :     0.066076
      dxy     :     0.048276
 14 H s       :     0.897661  s :     0.897661
      pz      :     0.018595  p :     0.089451
      px      :     0.045689
      py      :     0.025167
 15 C s       :     2.822417  s :     2.822417
      pz      :     0.988108  p :     2.947859
      px      :     0.996372
      py      :     0.963379
      dz2     :     0.046262  d :     0.251218
      dxz     :     0.056339
      dyz     :     0.034265
      dx2y2   :     0.066076
      dxy     :     0.048276

SPIN
  0 H s       :     0.010544  s :     0.010544
      pz      :    -0.000170  p :     0.000634
      px      :    -0.000374
      py      :     0.001178
  1 C s       :     0.006689  s :     0.006689
      pz      :    -0.005788  p :     0.021076
      px      :    -0.001720
      py      :     0.028584
      dz2     :     0.004911  d :     0.031763
      dxz     :     0.001498
      dyz     :     0.002465
      dx2y2   :     0.013848
      dxy     :     0.009041
  2 H s       :     0.010544  s :     0.010544
      pz      :    -0.000170  p :     0.000634
      px      :    -0.000374
      py      :     0.001178
  3 C s       :     0.006689  s :     0.006689
      pz      :    -0.005788  p :     0.021076
      px      :    -0.001720
      py      :     0.028584
      dz2     :     0.004911  d :     0.031763
      dxz     :     0.001498
      dyz     :     0.002465
      dx2y2   :     0.013848
      dxy     :     0.009041
  4 H s       :    -0.016135  s :    -0.016135
      pz      :     0.004976  p :     0.025038
      px      :     0.000249
      py      :     0.019813
  5 C s       :     0.051666  s :     0.051666
      pz      :     0.084713  p :     0.776787
      px      :     0.017013
      py      :     0.675061
      dz2     :     0.001723  d :     0.006926
      dxz     :    -0.000225
      dyz     :     0.003457
      dx2y2   :     0.001356
      dxy     :     0.000615
  6 H s       :    -0.016135  s :    -0.016135
      pz      :     0.004976  p :     0.025038
      px      :     0.000249
      py      :     0.019813
  7 C s       :     0.051666  s :     0.051666
      pz      :     0.084713  p :     0.776787
      px      :     0.017013
      py      :     0.675061
      dz2     :     0.001723  d :     0.006926
      dxz     :    -0.000225
      dyz     :     0.003457
      dx2y2   :     0.001356
      dxy     :     0.000615
  8 H s       :     0.001235  s :     0.001235
      pz      :     0.000328  p :     0.000160
      px      :    -0.000185
      py      :     0.000017
  9 C s       :     0.006191  s :     0.006191
      pz      :     0.006642  p :     0.004851
      px      :    -0.004269
      py      :     0.002478
      dz2     :     0.000588  d :     0.001870
      dxz     :     0.000362
      dyz     :     0.000277
      dx2y2   :     0.000901
      dxy     :    -0.000257
 10 H s       :     0.001235  s :     0.001235
      pz      :     0.000328  p :     0.000160
      px      :    -0.000185
      py      :     0.000017
 11 C s       :     0.006191  s :     0.006191
      pz      :     0.006642  p :     0.004851
      px      :    -0.004269
      py      :     0.002478
      dz2     :     0.000588  d :     0.001870
      dxz     :     0.000362
      dyz     :     0.000277
      dx2y2   :     0.000901
      dxy     :    -0.000257
 12 H s       :     0.010544  s :     0.010544
      pz      :    -0.000170  p :     0.000634
      px      :    -0.000374
      py      :     0.001178
 13 C s       :     0.006689  s :     0.006689
      pz      :    -0.005788  p :     0.021076
      px      :    -0.001720
      py      :     0.028584
      dz2     :     0.004911  d :     0.031763
      dxz     :     0.001498
      dyz     :     0.002465
      dx2y2   :     0.013848
      dxy     :     0.009041
 14 H s       :     0.010544  s :     0.010544
      pz      :    -0.000170  p :     0.000634
      px      :    -0.000374
      py      :     0.001178
 15 C s       :     0.006689  s :     0.006689
      pz      :    -0.005788  p :     0.021076
      px      :    -0.001720
      py      :     0.028584
      dz2     :     0.004911  d :     0.031763
      dxz     :     0.001498
      dyz     :     0.002465
      dx2y2   :     0.013848
      dxy     :     0.009041


                      *****************************
                      * MAYER POPULATION ANALYSIS *
                      *****************************

  NA   - Mulliken gross atomic population
  ZA   - Total nuclear charge
  QA   - Mulliken gross atomic charge
  VA   - Mayer's total valence
  BVA  - Mayer's bonded valence
  FA   - Mayer's free valence

  ATOM       NA         ZA         QA         VA         BVA        FA
  0 H      0.9851     1.0000     0.0149     0.9941     0.9402     0.0539
  1 C      6.0425     6.0000    -0.0425     4.0027     3.6843     0.3184
  2 H      0.9851     1.0000     0.0149     0.9941     0.9402     0.0539
  3 C      6.0425     6.0000    -0.0425     4.0027     3.6843     0.3184
  4 H      0.9714     1.0000     0.0286     0.9998     0.9475     0.0524
  5 C      5.9855     6.0000     0.0145     3.9141     2.9177     0.9964
  6 H      0.9714     1.0000     0.0286     0.9998     0.9475     0.0524
  7 C      5.9855     6.0000     0.0145     3.9141     2.9177     0.9964
  8 H      0.9958     1.0000     0.0042     1.0006     0.9468     0.0537
  9 C      5.9919     6.0000     0.0081     3.9267     3.6042     0.3226
 10 H      0.9958     1.0000     0.0042     1.0006     0.9468     0.0537
 11 C      5.9919     6.0000     0.0081     3.9267     3.6042     0.3226
 12 H      0.9851     1.0000     0.0149     0.9941     0.9402     0.0539
 13 C      6.0425     6.0000    -0.0425     4.0027     3.6843     0.3184
 14 H      0.9851     1.0000     0.0149     0.9941     0.9402     0.0539
 15 C      6.0425     6.0000    -0.0425     4.0027     3.6843     0.3184

  Mayer bond orders larger than 0.1
B(  0-H ,  1-C ) :   0.9274 B(  1-C ,  3-C ) :   0.8807 B(  1-C ,  5-C ) :   0.9735 
B(  1-C ,  9-C ) :   0.9078 B(  2-H ,  3-C ) :   0.9274 B(  3-C ,  7-C ) :   0.9735 
B(  3-C , 11-C ) :   0.9078 B(  4-H ,  5-C ) :   0.9318 B(  5-C , 13-C ) :   0.9735 
B(  6-H ,  7-C ) :   0.9318 B(  7-C , 15-C ) :   0.9735 B(  8-H ,  9-C ) :   0.9382 
B(  9-C , 11-C ) :   0.9064 B(  9-C , 13-C ) :   0.9078 B( 10-H , 11-C ) :   0.9382 
B( 11-C , 15-C ) :   0.9078 B( 12-H , 13-C ) :   0.9274 B( 13-C , 15-C ) :   0.8807 
B( 14-H , 15-C ) :   0.9274 


-------
TIMINGS
-------

Total time                :   34.028 sec
Integral trafo            :    0.474 sec (  1.4%)
FC preparation            :    0.122 sec (  0.4%)
I/O of integrals          :    0.003 sec (  0.0%)
K(i,j) Operators          :    0.272 sec (  0.8%)
T(i,j) pair energies      :    0.014 sec (  0.0%)
V-calculation             :    0.008 sec (  0.0%)
V**(-1/2)                 :    0.015 sec (  0.0%)
Gamma(ia|P)               :    0.268 sec (  0.8%)
Gamma-Trafo               :    0.069 sec (  0.2%)
D(virtual)                :    0.029 sec (  0.1%)
D(internal)               :    0.106 sec (  0.3%)
W(virtual)                :    0.033 sec (  0.1%)
W(internal)               :    0.084 sec (  0.2%)
L(virtual)                :    1.011 sec (  3.0%)
L(internal)               :    0.006 sec (  0.0%)
G(D)                      :    2.005 sec (  5.9%)
G(Z)                      :    2.151 sec (  6.3%)
Z-Vector Solution         :   17.793 sec ( 52.3%)
3-Index Derivative        :    2.019 sec (  5.9%)
2-Index Derivative        :    0.017 sec (  0.0%)
Separable Gradient        :    7.265 sec ( 21.4%)


---------------------------------------
MP2 TOTAL ENERGY:     -308.411845480 Eh
---------------------------------------

-----------------------------------
NORM OF THE MP2 GRADIENT:  0.000054
-----------------------------------

-------------------------   --------------------
FINAL SINGLE POINT ENERGY      -308.411845480114
-------------------------   --------------------

                                *** OPTIMIZATION RUN DONE ***

                            ***************************************
                            *     ORCA property calculations      *
                            ***************************************

                                    ---------------------
                                    Active property flags
                                    ---------------------
   (+) Dipole Moment


------------------------------------------------------------------------------
                       ORCA ELECTRIC PROPERTIES CALCULATION
------------------------------------------------------------------------------

Dipole Moment Calculation                       ... on
Quadrupole Moment Calculation                   ... off
Polarizability Calculation                      ... off
GBWName                                         ... /home/vladimir/git/private/ORCA/C8H8/T-cubane-1/MP2/cc-pVDZ/./cubane.gbw
Electron density file                           ... /home/vladimir/git/private/ORCA/C8H8/T-cubane-1/MP2/cc-pVDZ/./cubane.scfp.tmp

-------------
DIPOLE MOMENT
-------------
                                X             Y             Z
Electronic contribution:     -0.00000       0.00000      -0.17227
Nuclear contribution   :      0.00000      -0.00000       0.13119
                        -----------------------------------------
Total Dipole Moment    :     -0.00000       0.00000      -0.04107
                        -----------------------------------------
Magnitude (a.u.)       :      0.04107
Magnitude (Debye)      :      0.10440


                         *** MP2 UNRELAXED DENSITY ***

------------------------------------------------------------------------------
                       ORCA ELECTRIC PROPERTIES CALCULATION
------------------------------------------------------------------------------

Dipole Moment Calculation                       ... on
Quadrupole Moment Calculation                   ... off
Polarizability Calculation                      ... off
GBWName                                         ... /home/vladimir/git/private/ORCA/C8H8/T-cubane-1/MP2/cc-pVDZ/./cubane.gbw
Electron density file                           ... /home/vladimir/git/private/ORCA/C8H8/T-cubane-1/MP2/cc-pVDZ/./cubane.pmp2ur

-------------
DIPOLE MOMENT
-------------
                                X             Y             Z
Electronic contribution:     -0.00000       0.00000      -0.17359
Nuclear contribution   :      0.00000      -0.00000       0.13119
                        -----------------------------------------
Total Dipole Moment    :     -0.00000       0.00000      -0.04240
                        -----------------------------------------
Magnitude (a.u.)       :      0.04240
Magnitude (Debye)      :      0.10776


                           *** MP2 RELAXED DENSITY ***

------------------------------------------------------------------------------
                       ORCA ELECTRIC PROPERTIES CALCULATION
------------------------------------------------------------------------------

Dipole Moment Calculation                       ... on
Quadrupole Moment Calculation                   ... off
Polarizability Calculation                      ... off
GBWName                                         ... /home/vladimir/git/private/ORCA/C8H8/T-cubane-1/MP2/cc-pVDZ/./cubane.gbw
Electron density file                           ... /home/vladimir/git/private/ORCA/C8H8/T-cubane-1/MP2/cc-pVDZ/./cubane.pmp2re

-------------
DIPOLE MOMENT
-------------
                                X             Y             Z
Electronic contribution:     -0.00000       0.00000      -0.17938
Nuclear contribution   :      0.00000      -0.00000       0.13119
                        -----------------------------------------
Total Dipole Moment    :     -0.00000       0.00000      -0.04818
                        -----------------------------------------
Magnitude (a.u.)       :      0.04818
Magnitude (Debye)      :      0.12247


Timings for individual modules:

Sum of individual times         ...      108.920 sec (=   1.815 min)
GTO integral calculation        ...        0.967 sec (=   0.016 min)   0.9 %
SCF iterations                  ...       40.497 sec (=   0.675 min)  37.2 %
MP2 module                      ...       67.383 sec (=   1.123 min)  61.9 %
Geometry relaxation             ...        0.074 sec (=   0.001 min)   0.1 %
                             ****ORCA TERMINATED NORMALLY****
TOTAL RUN TIME: 0 days 0 hours 1 minutes 49 seconds 428 msec
