 argument  1 = cubane.nw
                                         
                                         


              Northwest Computational Chemistry Package (NWChem) 6.3
              ------------------------------------------------------


                    Environmental Molecular Sciences Laboratory
                       Pacific Northwest National Laboratory
                                Richland, WA 99352

                              Copyright (c) 1994-2013
                       Pacific Northwest National Laboratory
                            Battelle Memorial Institute

             NWChem is an open-source computational chemistry package
                        distributed under the terms of the
                      Educational Community License (ECL) 2.0
             A copy of the license is included with this distribution
                              in the LICENSE.TXT file

                                  ACKNOWLEDGMENT
                                  --------------

            This software and its documentation were developed at the
            EMSL at Pacific Northwest National Laboratory, a multiprogram
            national laboratory, operated for the U.S. Department of Energy
            by Battelle under Contract Number DE-AC05-76RL01830. Support
            for this work was provided by the Department of Energy Office
            of Biological and Environmental Research, Office of Basic
            Energy Sciences, and the Office of Advanced Scientific Computing.


           Job information
           ---------------

    hostname        = kbob-G41MT-S2
    program         = nwchem
    date            = Mon May 12 08:35:35 2014

    compiled        = Сб._мая_10_13:03:22_2014
    source          = /opt/Nwchem-6.3.revision25564-src.2014-05-03
    nwchem branch   = Development
    nwchem revision = 25564
    ga revision     = 10486
    input           = cubane.nw
    prefix          = cubane.
    data base       = ./cubane.db
    status          = startup
    nproc           =        1
    time left       =     -1s



           Memory information
           ------------------

    heap     =   63229438 doubles =    482.4 Mbytes
    stack    =   63229435 doubles =    482.4 Mbytes
    global   =  126458880 doubles =    964.8 Mbytes (distinct from heap & stack)
    total    =  252917753 doubles =   1929.6 Mbytes
    verify   = yes
    hardfail = no 


           Directory information
           ---------------------

  0 permanent = .
  0 scratch   = .




                                NWChem Input Module
                                -------------------


                     cubane MP2/cc-pVDZ geometry optimization
                     ----------------------------------------

 Scaling coordinates for geometry "geometry" by  1.889725989
 (inverse scale =  0.529177249)

 Turning off AUTOSYM since
 SYMMETRY directive was detected!


          ------
          auto-z
          ------


                             Geometry "geometry" -> ""
                             -------------------------

 Output coordinates in angstroms (scale by  1.889725989 to convert to a.u.)

  No.       Tag          Charge          X              Y              Z
 ---- ---------------- ---------- -------------- -------------- --------------
    1 H                    1.0000     1.41063149     1.41063149     1.41063149
    2 H                    1.0000    -1.41063149    -1.41063149     1.41063149
    3 H                    1.0000    -1.41063149     1.41063149    -1.41063149
    4 H                    1.0000     1.41063149    -1.41063149    -1.41063149
    5 H                    1.0000     1.41063149     1.41063149    -1.41063149
    6 H                    1.0000    -1.41063149    -1.41063149    -1.41063149
    7 H                    1.0000     1.41063149    -1.41063149     1.41063149
    8 H                    1.0000    -1.41063149     1.41063149     1.41063149
    9 C                    6.0000     0.78371973     0.78371973     0.78371973
   10 C                    6.0000    -0.78371973    -0.78371973     0.78371973
   11 C                    6.0000    -0.78371973     0.78371973    -0.78371973
   12 C                    6.0000     0.78371973    -0.78371973    -0.78371973
   13 C                    6.0000     0.78371973     0.78371973    -0.78371973
   14 C                    6.0000    -0.78371973    -0.78371973    -0.78371973
   15 C                    6.0000     0.78371973    -0.78371973     0.78371973
   16 C                    6.0000    -0.78371973     0.78371973     0.78371973

      Atomic Mass 
      ----------- 

      H                  1.007825
      C                 12.000000


 Effective nuclear repulsion energy (a.u.)     367.6600184792

            Nuclear Dipole moment (a.u.) 
            ----------------------------
        X                 Y               Z
 ---------------- ---------------- ----------------
     0.0000000000     0.0000000000     0.0000000000

      Symmetry information
      --------------------

 Group name              Oh       
 Group number             44
 Group order              48
 No. of unique centers     2

      Symmetry unique atoms

     1    9



                                Z-matrix (autoz)
                                -------- 

 Units are Angstrom for bonds and degrees for angles

      Type          Name      I     J     K     L     M      Value
      ----------- --------  ----- ----- ----- ----- ----- ----------
    1 Stretch                  1     9                       1.08584
    2 Stretch                  2    10                       1.08584
    3 Stretch                  3    11                       1.08584
    4 Stretch                  4    12                       1.08584
    5 Stretch                  5    13                       1.08584
    6 Stretch                  6    14                       1.08584
    7 Stretch                  7    15                       1.08584
    8 Stretch                  8    16                       1.08584
    9 Stretch                  9    13                       1.56744
   10 Stretch                  9    15                       1.56744
   11 Stretch                  9    16                       1.56744
   12 Stretch                 10    14                       1.56744
   13 Stretch                 10    15                       1.56744
   14 Stretch                 10    16                       1.56744
   15 Stretch                 11    13                       1.56744
   16 Stretch                 11    14                       1.56744
   17 Stretch                 11    16                       1.56744
   18 Stretch                 12    13                       1.56744
   19 Stretch                 12    14                       1.56744
   20 Stretch                 12    15                       1.56744
   21 Bend                     1     9    13               125.26439
   22 Bend                     1     9    15               125.26439
   23 Bend                     1     9    16               125.26439
   24 Bend                     2    10    14               125.26439
   25 Bend                     2    10    15               125.26439
   26 Bend                     2    10    16               125.26439
   27 Bend                     3    11    13               125.26439
   28 Bend                     3    11    14               125.26439
   29 Bend                     3    11    16               125.26439
   30 Bend                     4    12    13               125.26439
   31 Bend                     4    12    14               125.26439
   32 Bend                     4    12    15               125.26439
   33 Bend                     5    13     9               125.26439
   34 Bend                     5    13    11               125.26439
   35 Bend                     5    13    12               125.26439
   36 Bend                     6    14    10               125.26439
   37 Bend                     6    14    11               125.26439
   38 Bend                     6    14    12               125.26439
   39 Bend                     7    15     9               125.26439
   40 Bend                     7    15    10               125.26439
   41 Bend                     7    15    12               125.26439
   42 Bend                     8    16     9               125.26439
   43 Bend                     8    16    10               125.26439
   44 Bend                     8    16    11               125.26439
   45 Bend                     9    13    11                90.00000
   46 Bend                     9    13    12                90.00000
   47 Bend                     9    15    10                90.00000
   48 Bend                     9    15    12                90.00000
   49 Bend                     9    16    10                90.00000
   50 Bend                     9    16    11                90.00000
   51 Bend                    10    14    11                90.00000
   52 Bend                    10    14    12                90.00000
   53 Bend                    10    15    12                90.00000
   54 Bend                    10    16    11                90.00000
   55 Bend                    11    13    12                90.00000
   56 Bend                    11    14    12                90.00000
   57 Bend                    13     9    15                90.00000
   58 Bend                    13     9    16                90.00000
   59 Bend                    13    11    14                90.00000
   60 Bend                    13    11    16                90.00000
   61 Bend                    13    12    14                90.00000
   62 Bend                    13    12    15                90.00000
   63 Bend                    14    10    15                90.00000
   64 Bend                    14    10    16                90.00000
   65 Bend                    14    11    16                90.00000
   66 Bend                    14    12    15                90.00000
   67 Bend                    15     9    16                90.00000
   68 Bend                    15    10    16                90.00000
   69 Torsion                  1     9    13     5           0.00000
   70 Torsion                  1     9    13    11        -135.00000
   71 Torsion                  1     9    13    12         135.00000
   72 Torsion                  1     9    15     7           0.00000
   73 Torsion                  1     9    15    10         135.00000
   74 Torsion                  1     9    15    12        -135.00000
   75 Torsion                  1     9    16     8           0.00000
   76 Torsion                  1     9    16    10        -135.00000
   77 Torsion                  1     9    16    11         135.00000
   78 Torsion                  2    10    14     6           0.00000
   79 Torsion                  2    10    14    11         135.00000
   80 Torsion                  2    10    14    12        -135.00000
   81 Torsion                  2    10    15     7           0.00000
   82 Torsion                  2    10    15     9        -135.00000
   83 Torsion                  2    10    15    12         135.00000
   84 Torsion                  2    10    16     8           0.00000
   85 Torsion                  2    10    16     9         135.00000
   86 Torsion                  2    10    16    11        -135.00000
   87 Torsion                  3    11    13     5           0.00000
   88 Torsion                  3    11    13     9         135.00000
   89 Torsion                  3    11    13    12        -135.00000
   90 Torsion                  3    11    14     6           0.00000
   91 Torsion                  3    11    14    10        -135.00000
   92 Torsion                  3    11    14    12         135.00000
   93 Torsion                  3    11    16     8           0.00000
   94 Torsion                  3    11    16     9        -135.00000
   95 Torsion                  3    11    16    10         135.00000
   96 Torsion                  4    12    13     5           0.00000
   97 Torsion                  4    12    13     9        -135.00000
   98 Torsion                  4    12    13    11         135.00000
   99 Torsion                  4    12    14     6           0.00000
  100 Torsion                  4    12    14    10         135.00000
  101 Torsion                  4    12    14    11        -135.00000
  102 Torsion                  4    12    15     7           0.00000
  103 Torsion                  4    12    15     9         135.00000
  104 Torsion                  4    12    15    10        -135.00000
  105 Torsion                  5    13     9    15        -135.00000
  106 Torsion                  5    13     9    16         135.00000
  107 Torsion                  5    13    11    14         135.00000
  108 Torsion                  5    13    11    16        -135.00000
  109 Torsion                  5    13    12    14        -135.00000
  110 Torsion                  5    13    12    15         135.00000
  111 Torsion                  6    14    10    15         135.00000
  112 Torsion                  6    14    10    16        -135.00000
  113 Torsion                  6    14    11    13        -135.00000
  114 Torsion                  6    14    11    16         135.00000
  115 Torsion                  6    14    12    13         135.00000
  116 Torsion                  6    14    12    15        -135.00000
  117 Torsion                  7    15     9    13         135.00000
  118 Torsion                  7    15     9    16        -135.00000
  119 Torsion                  7    15    10    14        -135.00000
  120 Torsion                  7    15    10    16         135.00000
  121 Torsion                  7    15    12    13        -135.00000
  122 Torsion                  7    15    12    14         135.00000
  123 Torsion                  8    16     9    13        -135.00000
  124 Torsion                  8    16     9    15         135.00000
  125 Torsion                  8    16    10    14         135.00000
  126 Torsion                  8    16    10    15        -135.00000
  127 Torsion                  8    16    11    13         135.00000
  128 Torsion                  8    16    11    14        -135.00000
  129 Torsion                  9    13    11    14         -90.00000
  130 Torsion                  9    13    11    16           0.00000
  131 Torsion                  9    13    12    14          90.00000
  132 Torsion                  9    13    12    15           0.00000
  133 Torsion                  9    15    10    14          90.00000
  134 Torsion                  9    15    10    16           0.00000
  135 Torsion                  9    15    12    13           0.00000
  136 Torsion                  9    15    12    14         -90.00000
  137 Torsion                  9    16    10    14         -90.00000
  138 Torsion                  9    16    10    15           0.00000
  139 Torsion                  9    16    11    13           0.00000
  140 Torsion                  9    16    11    14          90.00000
  141 Torsion                 10    14    11    13          90.00000
  142 Torsion                 10    14    11    16           0.00000
  143 Torsion                 10    14    12    13         -90.00000
  144 Torsion                 10    14    12    15           0.00000
  145 Torsion                 10    15     9    13         -90.00000
  146 Torsion                 10    15     9    16           0.00000
  147 Torsion                 10    15    12    13          90.00000
  148 Torsion                 10    15    12    14           0.00000
  149 Torsion                 10    16     9    13          90.00000
  150 Torsion                 10    16     9    15           0.00000
  151 Torsion                 10    16    11    13         -90.00000
  152 Torsion                 10    16    11    14           0.00000
  153 Torsion                 11    13     9    15          90.00000
  154 Torsion                 11    13     9    16           0.00000
  155 Torsion                 11    13    12    14           0.00000
  156 Torsion                 11    13    12    15         -90.00000
  157 Torsion                 11    14    10    15         -90.00000
  158 Torsion                 11    14    10    16           0.00000
  159 Torsion                 11    14    12    13           0.00000
  160 Torsion                 11    14    12    15          90.00000
  161 Torsion                 11    16     9    13           0.00000
  162 Torsion                 11    16     9    15         -90.00000
  163 Torsion                 11    16    10    14           0.00000
  164 Torsion                 11    16    10    15          90.00000
  165 Torsion                 12    13     9    15           0.00000
  166 Torsion                 12    13     9    16         -90.00000
  167 Torsion                 12    13    11    14           0.00000
  168 Torsion                 12    13    11    16          90.00000
  169 Torsion                 12    14    10    15           0.00000
  170 Torsion                 12    14    10    16          90.00000
  171 Torsion                 12    14    11    13           0.00000
  172 Torsion                 12    14    11    16         -90.00000
  173 Torsion                 12    15     9    13           0.00000
  174 Torsion                 12    15     9    16          90.00000
  175 Torsion                 12    15    10    14           0.00000
  176 Torsion                 12    15    10    16         -90.00000


            XYZ format geometry
            -------------------
    16
 geometry
 H                     1.41063149     1.41063149     1.41063149
 H                    -1.41063149    -1.41063149     1.41063149
 H                    -1.41063149     1.41063149    -1.41063149
 H                     1.41063149    -1.41063149    -1.41063149
 H                     1.41063149     1.41063149    -1.41063149
 H                    -1.41063149    -1.41063149    -1.41063149
 H                     1.41063149    -1.41063149     1.41063149
 H                    -1.41063149     1.41063149     1.41063149
 C                     0.78371973     0.78371973     0.78371973
 C                    -0.78371973    -0.78371973     0.78371973
 C                    -0.78371973     0.78371973    -0.78371973
 C                     0.78371973    -0.78371973    -0.78371973
 C                     0.78371973     0.78371973    -0.78371973
 C                    -0.78371973    -0.78371973    -0.78371973
 C                     0.78371973    -0.78371973     0.78371973
 C                    -0.78371973     0.78371973     0.78371973

 ==============================================================================
                                internuclear distances
 ------------------------------------------------------------------------------
       center one      |      center two      | atomic units |  angstroms
 ------------------------------------------------------------------------------
    9 C                |   1 H                |     2.05195  |     1.08584
   10 C                |   2 H                |     2.05195  |     1.08584
   11 C                |   3 H                |     2.05195  |     1.08584
   12 C                |   4 H                |     2.05195  |     1.08584
   13 C                |   5 H                |     2.05195  |     1.08584
   13 C                |   9 C                |     2.96203  |     1.56744
   13 C                |  11 C                |     2.96203  |     1.56744
   13 C                |  12 C                |     2.96203  |     1.56744
   14 C                |   6 H                |     2.05195  |     1.08584
   14 C                |  10 C                |     2.96203  |     1.56744
   14 C                |  11 C                |     2.96203  |     1.56744
   14 C                |  12 C                |     2.96203  |     1.56744
   15 C                |   7 H                |     2.05195  |     1.08584
   15 C                |   9 C                |     2.96203  |     1.56744
   15 C                |  10 C                |     2.96203  |     1.56744
   15 C                |  12 C                |     2.96203  |     1.56744
   16 C                |   8 H                |     2.05195  |     1.08584
   16 C                |   9 C                |     2.96203  |     1.56744
   16 C                |  10 C                |     2.96203  |     1.56744
   16 C                |  11 C                |     2.96203  |     1.56744
 ------------------------------------------------------------------------------
                         number of included internuclear distances:         20
 ==============================================================================



 ==============================================================================
                                 internuclear angles
 ------------------------------------------------------------------------------
        center 1       |       center 2       |       center 3       |  degrees
 ------------------------------------------------------------------------------
    1 H                |   9 C                |  13 C                |   125.26
    1 H                |   9 C                |  15 C                |   125.26
    1 H                |   9 C                |  16 C                |   125.26
   13 C                |   9 C                |  15 C                |    90.00
   13 C                |   9 C                |  16 C                |    90.00
   15 C                |   9 C                |  16 C                |    90.00
    2 H                |  10 C                |  14 C                |   125.26
    2 H                |  10 C                |  15 C                |   125.26
    2 H                |  10 C                |  16 C                |   125.26
   14 C                |  10 C                |  15 C                |    90.00
   14 C                |  10 C                |  16 C                |    90.00
   15 C                |  10 C                |  16 C                |    90.00
    3 H                |  11 C                |  13 C                |   125.26
    3 H                |  11 C                |  14 C                |   125.26
    3 H                |  11 C                |  16 C                |   125.26
   13 C                |  11 C                |  14 C                |    90.00
   13 C                |  11 C                |  16 C                |    90.00
   14 C                |  11 C                |  16 C                |    90.00
    4 H                |  12 C                |  13 C                |   125.26
    4 H                |  12 C                |  14 C                |   125.26
    4 H                |  12 C                |  15 C                |   125.26
   13 C                |  12 C                |  14 C                |    90.00
   13 C                |  12 C                |  15 C                |    90.00
   14 C                |  12 C                |  15 C                |    90.00
    5 H                |  13 C                |   9 C                |   125.26
    5 H                |  13 C                |  11 C                |   125.26
    5 H                |  13 C                |  12 C                |   125.26
    9 C                |  13 C                |  11 C                |    90.00
    9 C                |  13 C                |  12 C                |    90.00
   11 C                |  13 C                |  12 C                |    90.00
    6 H                |  14 C                |  10 C                |   125.26
    6 H                |  14 C                |  11 C                |   125.26
    6 H                |  14 C                |  12 C                |   125.26
   10 C                |  14 C                |  11 C                |    90.00
   10 C                |  14 C                |  12 C                |    90.00
   11 C                |  14 C                |  12 C                |    90.00
    7 H                |  15 C                |   9 C                |   125.26
    7 H                |  15 C                |  10 C                |   125.26
    7 H                |  15 C                |  12 C                |   125.26
    9 C                |  15 C                |  10 C                |    90.00
    9 C                |  15 C                |  12 C                |    90.00
   10 C                |  15 C                |  12 C                |    90.00
    8 H                |  16 C                |   9 C                |   125.26
    8 H                |  16 C                |  10 C                |   125.26
    8 H                |  16 C                |  11 C                |   125.26
    9 C                |  16 C                |  10 C                |    90.00
    9 C                |  16 C                |  11 C                |    90.00
   10 C                |  16 C                |  11 C                |    90.00
 ------------------------------------------------------------------------------
                            number of included internuclear angles:         48
 ==============================================================================



  library name resolved from: environment
  library file name is: </opt/Nwchem-6.3.revision25564-src.2014-05-03/src/basis/libraries/>
  
                      Basis "ao basis" -> "" (spherical)
                      -----
  H (Hydrogen)
  ------------
            Exponent  Coefficients 
       -------------- ---------------------------------------------------------
  1 S  1.30100000E+01  0.019685
  1 S  1.96200000E+00  0.137977
  1 S  4.44600000E-01  0.478148

  2 S  1.22000000E-01  1.000000

  3 P  7.27000000E-01  1.000000

  C (Carbon)
  ----------
            Exponent  Coefficients 
       -------------- ---------------------------------------------------------
  1 S  6.66500000E+03  0.000692
  1 S  1.00000000E+03  0.005329
  1 S  2.28000000E+02  0.027077
  1 S  6.47100000E+01  0.101718
  1 S  2.10600000E+01  0.274740
  1 S  7.49500000E+00  0.448564
  1 S  2.79700000E+00  0.285074
  1 S  5.21500000E-01  0.015204

  2 S  6.66500000E+03 -0.000146
  2 S  1.00000000E+03 -0.001154
  2 S  2.28000000E+02 -0.005725
  2 S  6.47100000E+01 -0.023312
  2 S  2.10600000E+01 -0.063955
  2 S  7.49500000E+00 -0.149981
  2 S  2.79700000E+00 -0.127262
  2 S  5.21500000E-01  0.544529

  3 S  1.59600000E-01  1.000000

  4 P  9.43900000E+00  0.038109
  4 P  2.00200000E+00  0.209480
  4 P  5.45600000E-01  0.508557

  5 P  1.51700000E-01  1.000000

  6 D  5.50000000E-01  1.000000



 Summary of "ao basis" -> "" (spherical)
 ------------------------------------------------------------------------------
       Tag                 Description            Shells   Functions and Types
 ---------------- ------------------------------  ------  ---------------------
 H                          cc-pVDZ                  3        5   2s1p
 C                          cc-pVDZ                  6       14   3s2p1d




                           NWChem Geometry Optimization
                           ----------------------------




                     cubane MP2/cc-pVDZ geometry optimization


 maximum gradient threshold         (gmax) =   0.000450
 rms gradient threshold             (grms) =   0.000300
 maximum cartesian step threshold   (xmax) =   0.001800
 rms cartesian step threshold       (xrms) =   0.001200
 fixed trust radius                (trust) =   0.300000
 maximum step size to saddle      (sadstp) =   0.100000
 energy precision                  (eprec) =   1.0D-07
 maximum number of steps          (nptopt) =   20
 initial hessian option           (inhess) =    0
 line search option               (linopt) =    1
 hessian update option            (modupd) =    1
 saddle point option              (modsad) =    0
 initial eigen-mode to follow     (moddir) =    0
 initial variable to follow       (vardir) =    0
 follow first negative mode     (firstneg) =    T
 apply conjugacy                    (opcg) =    F
 source of zmatrix                         =   autoz   


          -------------------
          Energy Minimization
          -------------------


 Names of Z-matrix variables 
    1              2              3              4              5         
    6              7              8              9             10         
   11             12             13             14             15         
   16             17             18             19             20         
   21             22             23             24             25         
   26             27             28             29             30         
   31             32             33             34             35         
   36             37             38             39             40         
   41             42             43             44             45         
   46             47             48             49             50         
   51             52             53             54             55         
   56             57             58             59             60         
   61             62             63             64             65         
   66             67             68             69             70         
   71             72             73             74             75         
   76             77             78             79             80         
   81             82             83             84             85         
   86             87             88             89             90         
   91             92             93             94             95         
   96             97             98             99            100         
  101            102            103            104            105         
  106            107            108            109            110         
  111            112            113            114            115         
  116            117            118            119            120         
  121            122            123            124            125         
  126            127            128            129            130         
  131            132            133            134            135         
  136            137            138            139            140         
  141            142            143            144            145         
  146            147            148            149            150         
  151            152            153            154            155         
  156            157            158            159            160         
  161            162            163            164            165         
  166            167            168            169            170         
  171            172            173            174            175         
  176         

 Variables with the same non-blank name are constrained to be equal


 Using diagonal initial Hessian 
 Scaling for Hessian diagonals: bonds = 1.00  angles = 0.25  torsions = 0.10

          --------
          Step   0
          --------


                         Geometry "geometry" -> "geometry"
                         ---------------------------------

 Output coordinates in angstroms (scale by  1.889725989 to convert to a.u.)

  No.       Tag          Charge          X              Y              Z
 ---- ---------------- ---------- -------------- -------------- --------------
    1 H                    1.0000     1.41063149     1.41063149     1.41063149
    2 H                    1.0000    -1.41063149    -1.41063149     1.41063149
    3 H                    1.0000    -1.41063149     1.41063149    -1.41063149
    4 H                    1.0000     1.41063149    -1.41063149    -1.41063149
    5 H                    1.0000     1.41063149     1.41063149    -1.41063149
    6 H                    1.0000    -1.41063149    -1.41063149    -1.41063149
    7 H                    1.0000     1.41063149    -1.41063149     1.41063149
    8 H                    1.0000    -1.41063149     1.41063149     1.41063149
    9 C                    6.0000     0.78371973     0.78371973     0.78371973
   10 C                    6.0000    -0.78371973    -0.78371973     0.78371973
   11 C                    6.0000    -0.78371973     0.78371973    -0.78371973
   12 C                    6.0000     0.78371973    -0.78371973    -0.78371973
   13 C                    6.0000     0.78371973     0.78371973    -0.78371973
   14 C                    6.0000    -0.78371973    -0.78371973    -0.78371973
   15 C                    6.0000     0.78371973    -0.78371973     0.78371973
   16 C                    6.0000    -0.78371973     0.78371973     0.78371973

      Atomic Mass 
      ----------- 

      H                  1.007825
      C                 12.000000


 Effective nuclear repulsion energy (a.u.)     367.6600184792

            Nuclear Dipole moment (a.u.) 
            ----------------------------
        X                 Y               Z
 ---------------- ---------------- ----------------
     0.0000000000     0.0000000000     0.0000000000

      Symmetry information
      --------------------

 Group name              Oh       
 Group number             44
 Group order              48
 No. of unique centers     2

      Symmetry unique atoms

     1    9

                                 NWChem SCF Module
                                 -----------------


                     cubane MP2/cc-pVDZ geometry optimization



  ao basis        = "ao basis"
  functions       =   152
  atoms           =    16
  closed shells   =    28
  open shells     =     0
  charge          =   0.00
  wavefunction    = RHF 
  input vectors   = atomic
  output vectors  = ./cubane.movecs
  use symmetry    = T
  symmetry adapt  = T


 Summary of "ao basis" -> "ao basis" (spherical)
 ------------------------------------------------------------------------------
       Tag                 Description            Shells   Functions and Types
 ---------------- ------------------------------  ------  ---------------------
 H                          cc-pVDZ                  3        5   2s1p
 C                          cc-pVDZ                  6       14   3s2p1d


      Symmetry analysis of basis
      --------------------------

        a1g         9
        a1u         0
        a2g         0
        a2u         9
        eg         10
        eu         10
        t1g        15
        t1u        42
        t2g        42
        t2u        15


 Forming initial guess at       1.1s


      Superposition of Atomic Density Guess
      -------------------------------------

 Sum of atomic energies:        -305.32340088

      Non-variational initial energy
      ------------------------------

 Total energy =    -311.818823
 1-e energy   =   -1138.469213
 2-e energy   =     458.990372
 HOMO         =      -0.286518
 LUMO         =       0.058941


      Symmetry analysis of molecular orbitals - initial
      -------------------------------------------------

  Numbering of irreducible representations: 

     1 a1g         2 a1u         3 a2g         4 a2u         5 eg      
     6 eu          7 t1g         8 t1u         9 t2g        10 t2u     

  Orbital symmetries:

     1 a1g         2 t1u         3 t1u         4 t1u         5 t2g     
     6 t2g         7 t2g         8 a2u         9 a1g        10 t1u     
    11 t1u        12 t1u        13 t2g        14 t2g        15 t2g     
    16 a1g        17 a2u        18 eg         19 eg         20 t1u     
    21 t1u        22 t1u        23 t2u        24 t2u        25 t2u     
    26 t2g        27 t2g        28 t2g        29 t1u        30 t1u     
    31 t1u        32 a1g        33 t1u        34 t1u        35 t1u     
    36 t2g        37 t2g        38 t2g     


 Starting SCF solution at       2.3s



 ----------------------------------------------
         Quadratically convergent ROHF

 Convergence threshold     :          1.000E-06
 Maximum no. of iterations :           30
 Final Fock-matrix accuracy:          1.000E-08
 ----------------------------------------------


              iter       energy          gnorm     gmax       time
             ----- ------------------- --------- --------- --------
                 1     -307.3338910900  9.19D-01  2.45D-01      3.9
                 2     -307.4125698651  1.87D-01  4.48D-02      8.5
                 3     -307.4149455606  5.31D-03  1.57D-03     14.4
                 4     -307.4149485780  4.07D-06  8.60D-07     24.4
                 5     -307.4149485780  4.32D-08  9.54D-09     32.2


       Final RHF  results 
       ------------------ 

         Total SCF energy =   -307.414948577981
      One-electron energy =  -1144.415604034843
      Two-electron energy =    469.340636977662
 Nuclear repulsion energy =    367.660018479200

        Time for solution =     30.6s



       Symmetry analysis of molecular orbitals - final
       -----------------------------------------------

  Numbering of irreducible representations: 

     1 a1g         2 a1u         3 a2g         4 a2u         5 eg      
     6 eu          7 t1g         8 t1u         9 t2g        10 t2u     

  Orbital symmetries:

     1 a1g         2 t1u         3 t1u         4 t1u         5 t2g     
     6 t2g         7 t2g         8 a2u         9 a1g        10 t1u     
    11 t1u        12 t1u        13 t2g        14 t2g        15 t2g     
    16 a1g        17 a2u        18 t1u        19 t1u        20 t1u     
    21 eg         22 eg         23 t2u        24 t2u        25 t2u     
    26 t2g        27 t2g        28 t2g        29 a1g        30 t1u     
    31 t1u        32 t1u        33 t2g        34 t2g        35 t2g     
    36 t1u        37 t1u        38 t1u     

             Final eigenvalues
             -----------------

              1      
    1  -11.2245
    2  -11.2240
    3  -11.2240
    4  -11.2240
    5  -11.2235
    6  -11.2235
    7  -11.2235
    8  -11.2230
    9   -1.2476
   10   -0.9809
   11   -0.9809
   12   -0.9809
   13   -0.7692
   14   -0.7692
   15   -0.7692
   16   -0.7110
   17   -0.6423
   18   -0.5809
   19   -0.5809
   20   -0.5809
   21   -0.5796
   22   -0.5796
   23   -0.3906
   24   -0.3906
   25   -0.3906
   26   -0.3840
   27   -0.3840
   28   -0.3840
   29    0.1835
   30    0.2047
   31    0.2047
   32    0.2047
   33    0.2550
   34    0.2550
   35    0.2550
   36    0.2592
   37    0.2592
   38    0.2592

                       ROHF Final Molecular Orbital Analysis
                       -------------------------------------

 Vector    9  Occ=2.000000D+00  E=-1.247595D+00  Symmetry=a1g
              MO Center= -2.8D-17,  3.4D-17,  4.4D-17, r^2= 1.6D+00
   Bfn.  Coefficient  Atom+Function         Bfn.  Coefficient  Atom+Function  
  ----- ------------  ---------------      ----- ------------  ---------------
    42      0.134492   9 C  s                56      0.134492  10 C  s         
    70      0.134492  11 C  s                84      0.134492  12 C  s         
    98      0.134492  13 C  s               112      0.134492  14 C  s         
   126      0.134492  15 C  s               140      0.134492  16 C  s         

 Vector   10  Occ=2.000000D+00  E=-9.808965D-01  Symmetry=t1u
              MO Center= -1.6D-18, -3.4D-17, -1.0D-16, r^2= 2.6D+00
   Bfn.  Coefficient  Atom+Function         Bfn.  Coefficient  Atom+Function  
  ----- ------------  ---------------      ----- ------------  ---------------
    42      0.222894   9 C  s               112     -0.222894  14 C  s         
    43      0.193174   9 C  s               113     -0.193174  14 C  s         
    56     -0.151425  10 C  s                98      0.151425  13 C  s         

 Vector   11  Occ=2.000000D+00  E=-9.808965D-01  Symmetry=t1u
              MO Center=  7.0D-17, -1.4D-16, -2.6D-17, r^2= 2.6D+00
   Bfn.  Coefficient  Atom+Function         Bfn.  Coefficient  Atom+Function  
  ----- ------------  ---------------      ----- ------------  ---------------
    84     -0.201373  12 C  s               140      0.201373  16 C  s         
    70      0.185278  11 C  s               126     -0.185278  15 C  s         
    85     -0.174523  12 C  s               141      0.174523  16 C  s         
    71      0.160574  11 C  s               127     -0.160574  15 C  s         

 Vector   12  Occ=2.000000D+00  E=-9.808965D-01  Symmetry=t1u
              MO Center=  4.4D-17, -3.6D-17,  2.1D-16, r^2= 2.6D+00
   Bfn.  Coefficient  Atom+Function         Bfn.  Coefficient  Atom+Function  
  ----- ------------  ---------------      ----- ------------  ---------------
    56      0.182035  10 C  s                98     -0.182035  13 C  s         
    57      0.157763  10 C  s                99     -0.157763  13 C  s         

 Vector   13  Occ=2.000000D+00  E=-7.692306D-01  Symmetry=t2g
              MO Center=  1.1D-16,  4.1D-16,  3.6D-16, r^2= 4.1D+00
   Bfn.  Coefficient  Atom+Function         Bfn.  Coefficient  Atom+Function  
  ----- ------------  ---------------      ----- ------------  ---------------
    43      0.255994   9 C  s               113      0.255994  14 C  s         
    42      0.208501   9 C  s               112      0.208501  14 C  s         
     1      0.194951   1 H  s                26      0.194951   6 H  s         

 Vector   14  Occ=2.000000D+00  E=-7.692306D-01  Symmetry=t2g
              MO Center= -2.6D-16, -3.7D-16,  2.7D-16, r^2= 4.1D+00
   Bfn.  Coefficient  Atom+Function         Bfn.  Coefficient  Atom+Function  
  ----- ------------  ---------------      ----- ------------  ---------------
    85      0.249731  12 C  s               141      0.249731  16 C  s         
    84      0.203400  12 C  s               140      0.203400  16 C  s         
    16      0.190181   4 H  s                36      0.190181   8 H  s         
    57     -0.158362  10 C  s                99     -0.158362  13 C  s         

 Vector   15  Occ=2.000000D+00  E=-7.692306D-01  Symmetry=t2g
              MO Center=  6.7D-17, -2.2D-17, -1.2D-16, r^2= 4.1D+00
   Bfn.  Coefficient  Atom+Function         Bfn.  Coefficient  Atom+Function  
  ----- ------------  ---------------      ----- ------------  ---------------
    71      0.231582  11 C  s               127      0.231582  15 C  s         
    70      0.188618  11 C  s               126      0.188618  15 C  s         
    57     -0.179488  10 C  s                99     -0.179488  13 C  s         
    11      0.176360   3 H  s                31      0.176360   7 H  s         

 Vector   16  Occ=2.000000D+00  E=-7.110074D-01  Symmetry=a1g
              MO Center= -5.9D-17,  1.4D-16, -3.5D-17, r^2= 4.3D+00
   Bfn.  Coefficient  Atom+Function         Bfn.  Coefficient  Atom+Function  
  ----- ------------  ---------------      ----- ------------  ---------------
     1      0.133636   1 H  s                 6      0.133636   2 H  s         
    11      0.133636   3 H  s                16      0.133636   4 H  s         
    21      0.133636   5 H  s                26      0.133636   6 H  s         
    31      0.133636   7 H  s                36      0.133636   8 H  s         

 Vector   17  Occ=2.000000D+00  E=-6.423076D-01  Symmetry=a2u
              MO Center=  3.3D-15, -1.2D-15, -1.5D-15, r^2= 5.1D+00
   Bfn.  Coefficient  Atom+Function         Bfn.  Coefficient  Atom+Function  
  ----- ------------  ---------------      ----- ------------  ---------------
     1      0.156604   1 H  s                 6      0.156604   2 H  s         
    11      0.156604   3 H  s                16      0.156604   4 H  s         
    21     -0.156604   5 H  s                26     -0.156604   6 H  s         
    31     -0.156604   7 H  s                36     -0.156604   8 H  s         

 Vector   18  Occ=2.000000D+00  E=-5.809463D-01  Symmetry=t1u
              MO Center=  3.2D-16, -1.1D-16,  1.1D-16, r^2= 4.2D+00
   Bfn.  Coefficient  Atom+Function         Bfn.  Coefficient  Atom+Function  
  ----- ------------  ---------------      ----- ------------  ---------------
    16      0.222833   4 H  s                36     -0.222833   8 H  s         
    86      0.176177  12 C  px              142      0.176177  16 C  px        
     1     -0.166173   1 H  s                26      0.166173   6 H  s         
    44     -0.160220   9 C  px              114     -0.160220  14 C  px        

 Vector   19  Occ=2.000000D+00  E=-5.809463D-01  Symmetry=t1u
              MO Center=  3.2D-16, -3.3D-17,  2.2D-16, r^2= 4.2D+00
   Bfn.  Coefficient  Atom+Function         Bfn.  Coefficient  Atom+Function  
  ----- ------------  ---------------      ----- ------------  ---------------
     6      0.221514   2 H  s                21     -0.221514   5 H  s         
    58     -0.176336  10 C  px              100     -0.176336  13 C  px        
    11     -0.169311   3 H  s                31      0.169311   7 H  s         
    72      0.161634  11 C  px              128      0.161634  15 C  px        

 Vector   20  Occ=2.000000D+00  E=-5.809463D-01  Symmetry=t1u
              MO Center=  2.3D-16, -2.9D-16, -1.8D-16, r^2= 4.2D+00
   Bfn.  Coefficient  Atom+Function         Bfn.  Coefficient  Atom+Function  
  ----- ------------  ---------------      ----- ------------  ---------------
     1      0.176704   1 H  s                26     -0.176704   6 H  s         
    11     -0.170631   3 H  s                31      0.170631   7 H  s         
    45      0.151036   9 C  py              115      0.151036  14 C  py        

 Vector   21  Occ=2.000000D+00  E=-5.795848D-01  Symmetry=eg
              MO Center= -1.1D-16,  6.9D-18,  7.2D-17, r^2= 2.6D+00
   Bfn.  Coefficient  Atom+Function         Bfn.  Coefficient  Atom+Function  
  ----- ------------  ---------------      ----- ------------  ---------------
    46      0.167758   9 C  pz               60      0.167758  10 C  pz        
    74     -0.167758  11 C  pz               88     -0.167758  12 C  pz        
   102     -0.167758  13 C  pz              116     -0.167758  14 C  pz        
   130      0.167758  15 C  pz              144      0.167758  16 C  pz        

 Vector   22  Occ=2.000000D+00  E=-5.795848D-01  Symmetry=eg
              MO Center= -3.0D-16,  8.7D-17, -3.2D-16, r^2= 2.6D+00
   Bfn.  Coefficient  Atom+Function         Bfn.  Coefficient  Atom+Function  
  ----- ------------  ---------------      ----- ------------  ---------------
    44      0.153392   9 C  px               58     -0.153392  10 C  px        
    72     -0.153392  11 C  px               86      0.153392  12 C  px        
   100      0.153392  13 C  px              114     -0.153392  14 C  px        
   128      0.153392  15 C  px              142     -0.153392  16 C  px        

 Vector   23  Occ=2.000000D+00  E=-3.906260D-01  Symmetry=t2u
              MO Center= -6.1D-16, -5.0D-17,  2.3D-15, r^2= 2.9D+00
   Bfn.  Coefficient  Atom+Function         Bfn.  Coefficient  Atom+Function  
  ----- ------------  ---------------      ----- ------------  ---------------
    74      0.214540  11 C  pz               88     -0.214540  12 C  pz        
   130      0.214540  15 C  pz              144     -0.214540  16 C  pz        
    58      0.152293  10 C  px               72     -0.152293  11 C  px        
   100      0.152293  13 C  px              128     -0.152293  15 C  px        

 Vector   24  Occ=2.000000D+00  E=-3.906260D-01  Symmetry=t2u
              MO Center= -1.2D-15, -2.5D-15,  2.8D-15, r^2= 2.9D+00
   Bfn.  Coefficient  Atom+Function         Bfn.  Coefficient  Atom+Function  
  ----- ------------  ---------------      ----- ------------  ---------------
    46      0.212648   9 C  pz               60     -0.212648  10 C  pz        
   102     -0.212648  13 C  pz              116      0.212648  14 C  pz        
    45     -0.168341   9 C  py               73      0.168341  11 C  py        
   115     -0.168341  14 C  py              129      0.168341  15 C  py        

 Vector   25  Occ=2.000000D+00  E=-3.906260D-01  Symmetry=t2u
              MO Center=  2.5D-16,  5.1D-15,  2.8D-16, r^2= 2.9D+00
   Bfn.  Coefficient  Atom+Function         Bfn.  Coefficient  Atom+Function  
  ----- ------------  ---------------      ----- ------------  ---------------
    59      0.178746  10 C  py               87     -0.178746  12 C  py        
   101      0.178746  13 C  py              143     -0.178746  16 C  py        
    44      0.172847   9 C  px               86     -0.172847  12 C  px        
   114      0.172847  14 C  px              142     -0.172847  16 C  px        

 Vector   26  Occ=2.000000D+00  E=-3.839585D-01  Symmetry=t2g
              MO Center=  5.8D-15,  3.4D-15, -1.5D-16, r^2= 3.5D+00
   Bfn.  Coefficient  Atom+Function         Bfn.  Coefficient  Atom+Function  
  ----- ------------  ---------------      ----- ------------  ---------------
    46      0.203669   9 C  pz              116     -0.203669  14 C  pz        
    74      0.199009  11 C  pz              130     -0.199009  15 C  pz        
    88      0.194927  12 C  pz              144     -0.194927  16 C  pz        
    60      0.190267  10 C  pz              102     -0.190267  13 C  pz        
     1      0.164634   1 H  s                26      0.164634   6 H  s         

 Vector   27  Occ=2.000000D+00  E=-3.839585D-01  Symmetry=t2g
              MO Center= -3.2D-15, -3.7D-16, -3.1D-16, r^2= 3.5D+00
   Bfn.  Coefficient  Atom+Function         Bfn.  Coefficient  Atom+Function  
  ----- ------------  ---------------      ----- ------------  ---------------
    59      0.209331  10 C  py               73      0.209562  11 C  py        
   101     -0.209331  13 C  py              129     -0.209562  15 C  py        
    45      0.204509   9 C  py               87      0.204739  12 C  py        
   115     -0.204509  14 C  py              143     -0.204739  16 C  py        

 Vector   28  Occ=2.000000D+00  E=-3.839585D-01  Symmetry=t2g
              MO Center= -1.5D-15, -6.1D-15, -5.0D-15, r^2= 3.5D+00
   Bfn.  Coefficient  Atom+Function         Bfn.  Coefficient  Atom+Function  
  ----- ------------  ---------------      ----- ------------  ---------------
    86      0.204893  12 C  px              142     -0.204893  16 C  px        
    58      0.203629  10 C  px              100     -0.203629  13 C  px        
    72      0.196240  11 C  px              128     -0.196240  15 C  px        
    44      0.194976   9 C  px              114     -0.194976  14 C  px        
    16      0.151983   4 H  s                36      0.151983   8 H  s         

 Vector   29  Occ=0.000000D+00  E= 1.834932D-01  Symmetry=a1g
              MO Center= -2.7D-16, -9.4D-16,  1.1D-15, r^2= 1.0D+01
   Bfn.  Coefficient  Atom+Function         Bfn.  Coefficient  Atom+Function  
  ----- ------------  ---------------      ----- ------------  ---------------
     2      0.694651   1 H  s                 7      0.694651   2 H  s         
    12      0.694651   3 H  s                17      0.694651   4 H  s         
    22      0.694651   5 H  s                27      0.694651   6 H  s         
    32      0.694651   7 H  s                37      0.694651   8 H  s         
    43     -0.562776   9 C  s                57     -0.562776  10 C  s         

 Vector   30  Occ=0.000000D+00  E= 2.047429D-01  Symmetry=t1u
              MO Center=  3.6D-15, -5.4D-16,  2.5D-15, r^2= 7.3D+00
   Bfn.  Coefficient  Atom+Function         Bfn.  Coefficient  Atom+Function  
  ----- ------------  ---------------      ----- ------------  ---------------
    43      1.052803   9 C  s               113     -1.052803  14 C  s         
    71     -0.848372  11 C  s               127      0.848372  15 C  s         
     2     -0.684390   1 H  s                27      0.684390   6 H  s         
    12      0.551497   3 H  s                32     -0.551497   7 H  s         
    57     -0.522881  10 C  s                99      0.522881  13 C  s         

 Vector   31  Occ=0.000000D+00  E= 2.047429D-01  Symmetry=t1u
              MO Center=  1.3D-16,  5.8D-16,  2.6D-16, r^2= 7.3D+00
   Bfn.  Coefficient  Atom+Function         Bfn.  Coefficient  Atom+Function  
  ----- ------------  ---------------      ----- ------------  ---------------
    57      1.168748  10 C  s                99     -1.168748  13 C  s         
    71     -0.798077  11 C  s               127      0.798077  15 C  s         
     7     -0.759762   2 H  s                22      0.759762   5 H  s         
    12      0.518801   3 H  s                32     -0.518801   7 H  s         
    85     -0.441606  12 C  s               141      0.441606  16 C  s         

 Vector   32  Occ=0.000000D+00  E= 2.047429D-01  Symmetry=t1u
              MO Center=  2.4D-14, -2.1D-14, -1.8D-14, r^2= 7.3D+00
   Bfn.  Coefficient  Atom+Function         Bfn.  Coefficient  Atom+Function  
  ----- ------------  ---------------      ----- ------------  ---------------
    85      1.164381  12 C  s               141     -1.164381  16 C  s         
    17     -0.756923   4 H  s                37      0.756923   8 H  s         
    43     -0.734018   9 C  s               113      0.734018  14 C  s         
    71     -0.543643  11 C  s               127      0.543643  15 C  s         
     2      0.477159   1 H  s                27     -0.477159   6 H  s         

 Vector   33  Occ=0.000000D+00  E= 2.549837D-01  Symmetry=t2g
              MO Center= -8.0D-16,  3.5D-15, -6.3D-15, r^2= 1.2D+01
   Bfn.  Coefficient  Atom+Function         Bfn.  Coefficient  Atom+Function  
  ----- ------------  ---------------      ----- ------------  ---------------
    12      1.657047   3 H  s                32      1.657047   7 H  s         
     2     -0.890570   1 H  s                27     -0.890570   6 H  s         
    75      0.726441  11 C  px              131     -0.726441  15 C  px        
    77      0.707505  11 C  pz              133     -0.707505  15 C  pz        
    76     -0.679398  11 C  py              132      0.679398  15 C  py        

 Vector   34  Occ=0.000000D+00  E= 2.549837D-01  Symmetry=t2g
              MO Center= -3.0D-14,  1.7D-14,  1.9D-14, r^2= 1.2D+01
   Bfn.  Coefficient  Atom+Function         Bfn.  Coefficient  Atom+Function  
  ----- ------------  ---------------      ----- ------------  ---------------
     7      1.442182   2 H  s                22      1.442182   5 H  s         
    17     -1.325562   4 H  s                37     -1.325562   8 H  s         
    63     -0.652078  10 C  pz              105      0.652078  13 C  pz        
    61      0.636703  10 C  px              103     -0.636703  13 C  px        
    91     -0.608258  12 C  pz              147      0.608258  16 C  pz        

 Vector   35  Occ=0.000000D+00  E= 2.549837D-01  Symmetry=t2g
              MO Center=  1.2D-14,  3.7D-15, -3.0D-15, r^2= 1.2D+01
   Bfn.  Coefficient  Atom+Function         Bfn.  Coefficient  Atom+Function  
  ----- ------------  ---------------      ----- ------------  ---------------
     2      1.450458   1 H  s                27      1.450458   6 H  s         
    17     -0.938457   4 H  s                37     -0.938457   8 H  s         
     7     -0.868270   2 H  s                22     -0.868270   5 H  s         
    48     -0.678818   9 C  py              118      0.678818  14 C  py        
    49     -0.588123   9 C  pz              119      0.588123  14 C  pz        

 Vector   36  Occ=0.000000D+00  E= 2.591656D-01  Symmetry=t1u
              MO Center= -8.9D-15,  2.0D-15,  9.6D-15, r^2= 8.4D+00
   Bfn.  Coefficient  Atom+Function         Bfn.  Coefficient  Atom+Function  
  ----- ------------  ---------------      ----- ------------  ---------------
     2      1.066192   1 H  s                27     -1.066192   6 H  s         
    17     -1.038212   4 H  s                37      1.038212   8 H  s         
    48     -0.592212   9 C  py              118     -0.592212  14 C  py        
    90     -0.585068  12 C  py              146     -0.585068  16 C  py        
    49     -0.562463   9 C  pz              119     -0.562463  14 C  pz        

 Vector   37  Occ=0.000000D+00  E= 2.591656D-01  Symmetry=t1u
              MO Center=  6.4D-15,  2.2D-15, -2.8D-15, r^2= 8.4D+00
   Bfn.  Coefficient  Atom+Function         Bfn.  Coefficient  Atom+Function  
  ----- ------------  ---------------      ----- ------------  ---------------
     7      1.288784   2 H  s                22     -1.288784   5 H  s         
    63     -0.593488  10 C  pz              105     -0.593488  13 C  pz        
    61      0.578535  10 C  px              103      0.578535  13 C  px        
    62      0.562577  10 C  py              104      0.562577  13 C  py        
    17     -0.483471   4 H  s                37      0.483471   8 H  s         

 Vector   38  Occ=0.000000D+00  E= 2.591656D-01  Symmetry=t1u
              MO Center=  2.2D-14, -1.2D-14, -2.6D-15, r^2= 8.4D+00
   Bfn.  Coefficient  Atom+Function         Bfn.  Coefficient  Atom+Function  
  ----- ------------  ---------------      ----- ------------  ---------------
    12      1.216666   3 H  s                32     -1.216666   7 H  s         
    75      0.663335  11 C  px              131      0.663335  15 C  px        
     2     -0.621633   1 H  s                27      0.621633   6 H  s         
    17     -0.594643   4 H  s                37      0.594643   8 H  s         
    47      0.511411   9 C  px              117      0.511411  14 C  px        

 Vector   39  Occ=0.000000D+00  E= 2.669878D-01  Symmetry=a2u
              MO Center=  6.5D-15,  2.5D-15, -1.0D-15, r^2= 1.3D+01
   Bfn.  Coefficient  Atom+Function         Bfn.  Coefficient  Atom+Function  
  ----- ------------  ---------------      ----- ------------  ---------------
    43      1.631776   9 C  s                57      1.631776  10 C  s         
    71      1.631776  11 C  s                85      1.631776  12 C  s         
    99     -1.631776  13 C  s               113     -1.631776  14 C  s         
   127     -1.631776  15 C  s               141     -1.631776  16 C  s         
     2      1.344927   1 H  s                 7      1.344927   2 H  s         

 Vector   40  Occ=0.000000D+00  E= 3.734382D-01  Symmetry=t1g
              MO Center= -6.3D-15, -1.1D-14,  5.2D-15, r^2= 4.5D+00
   Bfn.  Coefficient  Atom+Function         Bfn.  Coefficient  Atom+Function  
  ----- ------------  ---------------      ----- ------------  ---------------
    61      0.800745  10 C  px               75     -0.800745  11 C  px        
   103     -0.800745  13 C  px              131      0.800745  15 C  px        
    48      0.538360   9 C  py               76     -0.538360  11 C  py        
   118     -0.538360  14 C  py              132      0.538360  15 C  py        
    62     -0.514821  10 C  py               90      0.514821  12 C  py        

 Vector   41  Occ=0.000000D+00  E= 3.734382D-01  Symmetry=t1g
              MO Center= -3.4D-15,  2.6D-15,  2.0D-15, r^2= 4.5D+00
   Bfn.  Coefficient  Atom+Function         Bfn.  Coefficient  Atom+Function  
  ----- ------------  ---------------      ----- ------------  ---------------
    47      0.781957   9 C  px               89     -0.781957  12 C  px        
   117     -0.781957  14 C  px              145      0.781957  16 C  px        
    77      0.640861  11 C  pz               91     -0.640861  12 C  pz        
   133     -0.640861  15 C  pz              147      0.640861  16 C  pz        
    48     -0.390681   9 C  py               49     -0.391277   9 C  pz        

 Vector   42  Occ=0.000000D+00  E= 3.734382D-01  Symmetry=t1g
              MO Center= -1.1D-15,  5.8D-16,  1.9D-15, r^2= 4.5D+00
   Bfn.  Coefficient  Atom+Function         Bfn.  Coefficient  Atom+Function  
  ----- ------------  ---------------      ----- ------------  ---------------
    49      0.685816   9 C  pz               63     -0.685816  10 C  pz        
   105      0.685816  13 C  pz              119     -0.685816  14 C  pz        
    62     -0.648263  10 C  py               90      0.648263  12 C  py        
   104      0.648263  13 C  py              146     -0.648263  16 C  py        
    48     -0.512573   9 C  py               76      0.512573  11 C  py        

 Vector   43  Occ=0.000000D+00  E= 4.519104D-01  Symmetry=t2g
              MO Center= -9.3D-15, -1.6D-15, -5.3D-15, r^2= 6.4D+00
   Bfn.  Coefficient  Atom+Function         Bfn.  Coefficient  Atom+Function  
  ----- ------------  ---------------      ----- ------------  ---------------
    57      2.371786  10 C  s                99      2.371786  13 C  s         
    43     -1.987110   9 C  s               113     -1.987110  14 C  s         
    71     -1.618922  11 C  s               127     -1.618922  15 C  s         
    63     -1.323212  10 C  pz              105      1.323212  13 C  pz        
    49      1.307282   9 C  pz              119     -1.307282  14 C  pz        

 Vector   44  Occ=0.000000D+00  E= 4.519104D-01  Symmetry=t2g
              MO Center= -2.0D-15, -3.1D-16, -5.3D-16, r^2= 6.4D+00
   Bfn.  Coefficient  Atom+Function         Bfn.  Coefficient  Atom+Function  
  ----- ------------  ---------------      ----- ------------  ---------------
    85      2.889603  12 C  s               141      2.889603  16 C  s         
    57     -2.045502  10 C  s                99     -2.045502  13 C  s         
    90      1.506589  12 C  py              146     -1.506589  16 C  py        
    62     -1.471634  10 C  py              104      1.471634  13 C  py        
    91      1.231182  12 C  pz              147     -1.231182  16 C  pz        

 Vector   45  Occ=0.000000D+00  E= 4.519104D-01  Symmetry=t2g
              MO Center= -6.7D-15,  4.9D-15, -1.0D-14, r^2= 6.4D+00
   Bfn.  Coefficient  Atom+Function         Bfn.  Coefficient  Atom+Function  
  ----- ------------  ---------------      ----- ------------  ---------------
    71     -2.555865  11 C  s               127     -2.555865  15 C  s         
    43      2.508197   9 C  s               113      2.508197  14 C  s         
    48     -1.527036   9 C  py               76      1.529010  11 C  py        
   118      1.527036  14 C  py              132     -1.529010  15 C  py        
    75     -1.018674  11 C  px              131      1.018674  15 C  px        

 Vector   46  Occ=0.000000D+00  E= 4.962095D-01  Symmetry=a1g
              MO Center= -7.2D-15,  3.3D-15,  7.5D-15, r^2= 5.6D+00
   Bfn.  Coefficient  Atom+Function         Bfn.  Coefficient  Atom+Function  
  ----- ------------  ---------------      ----- ------------  ---------------
     1      0.304945   1 H  s                 6      0.304945   2 H  s         
    11      0.304945   3 H  s                16      0.304945   4 H  s         
    21      0.304945   5 H  s                26      0.304945   6 H  s         
    31      0.304945   7 H  s                36      0.304945   8 H  s         
     2     -0.239077   1 H  s                 7     -0.239077   2 H  s         

 Vector   47  Occ=0.000000D+00  E= 5.266434D-01  Symmetry=eu
              MO Center= -1.1D-16,  7.7D-17,  5.4D-15, r^2= 5.0D+00
   Bfn.  Coefficient  Atom+Function         Bfn.  Coefficient  Atom+Function  
  ----- ------------  ---------------      ----- ------------  ---------------
    49      1.225875   9 C  pz               63      1.225875  10 C  pz        
    77     -1.225875  11 C  pz               91     -1.225875  12 C  pz        
   105      1.225875  13 C  pz              119      1.225875  14 C  pz        
   133     -1.225875  15 C  pz              147     -1.225875  16 C  pz        
    48     -0.704192   9 C  py               62      0.704192  10 C  py        


 center of mass
 --------------
 x =   0.00000000 y =   0.00000000 z =   0.00000000

 moments of inertia (a.u.)
 ------------------
         535.719720846287           0.000000000000           0.000000000000
           0.000000000000         535.719720846287           0.000000000000
           0.000000000000           0.000000000000         535.719720846287

  Mulliken analysis of the total density
  --------------------------------------

    Atom       Charge   Shell Charges
 -----------   ------   -------------------------------------------------------
    1 H    1     1.01   0.76  0.21  0.03
    2 H    1     1.01   0.76  0.21  0.03
    3 H    1     1.01   0.76  0.21  0.03
    4 H    1     1.01   0.76  0.21  0.03
    5 H    1     1.01   0.76  0.21  0.03
    6 H    1     1.01   0.76  0.21  0.03
    7 H    1     1.01   0.76  0.21  0.03
    8 H    1     1.01   0.76  0.21  0.03
    9 C    6     5.99   2.01  0.63  0.55  1.99  0.71  0.10
   10 C    6     5.99   2.01  0.63  0.55  1.99  0.71  0.10
   11 C    6     5.99   2.01  0.63  0.55  1.99  0.71  0.10
   12 C    6     5.99   2.01  0.63  0.55  1.99  0.71  0.10
   13 C    6     5.99   2.01  0.63  0.55  1.99  0.71  0.10
   14 C    6     5.99   2.01  0.63  0.55  1.99  0.71  0.10
   15 C    6     5.99   2.01  0.63  0.55  1.99  0.71  0.10
   16 C    6     5.99   2.01  0.63  0.55  1.99  0.71  0.10

       Multipole analysis of the density wrt the origin
       ------------------------------------------------

     L   x y z        total         open         nuclear
     -   - - -        -----         ----         -------
     0   0 0 0     -0.000000      0.000000     56.000000

     1   1 0 0     -0.000000      0.000000      0.000000
     1   0 1 0     -0.000000      0.000000      0.000000
     1   0 0 1     -0.000000      0.000000      0.000000

     2   2 0 0    -35.129859      0.000000    162.131488
     2   1 1 0      0.000000      0.000000      0.000000
     2   1 0 1     -0.000000      0.000000      0.000000
     2   0 2 0    -35.129859      0.000000    162.131488
     2   0 1 1      0.000000      0.000000      0.000000
     2   0 0 2    -35.129859      0.000000    162.131488

                   NWChem MP2 Semi-direct Energy/Gradient Module
                   ---------------------------------------------


                     cubane MP2/cc-pVDZ geometry optimization


  Basis functions       =    152
  Molecular orbitals    =    152
  Frozen core           =      8
  Frozen virtuals       =      0
  Active alpha occupied =     20
  Active beta occupied  =     20
  Active alpha virtual  =    124
  Active beta virtual   =    124
  Use MO symmetry       = F
  Use skeleton AO sym   = T

  AO/Fock/Back tols     =   1.0D-09  1.0D-09  1.0D-09

 GA uses MA = F    GA memory limited = T

 Available: 
  local mem=  5.53D+07
 global mem=  1.26D+08
 local disk=  5.28D+07
   1 passes of  20:        3193965                     768737                  41821091.

 Semi-direct pass number   1 of   1  for RHF alpha+beta  at       34.0s
Node 0 wrote    229.5 Mb in      2.3 s     Agg I/O rate:   101.7 Mb/s
 Done moints_semi at      142.7s
 Done maket at      145.8s
 Done pijab at      146.2s
 Done wijab at      146.6s
 Done lai at      157.6s
 Done nonsep at      167.9s
 Done multipass loop at      167.9s


          -------------------------------------------
          SCF energy                -307.414948577981
          Correlation energy          -1.067395049945
          Singlet pairs               -0.656488118736
          Triplet pairs               -0.410906931209
          Total MP2 energy          -308.482343627926
          -------------------------------------------



          ---------------------------------------------------
                    Spin Component Scaled (SCS) MP2
          Same spin pairs                     -0.273937954139
          Same spin scaling factor             0.333333333333
          Opposite spin pairs                 -0.793457095806
          Opposite spin scaling fact.          1.200000000000
          SCS-MP2 correlation energy          -1.043461166346
          Total SCS-MP2 energy              -308.458409744328
          ---------------------------------------------------

                                NWChem CPHF Module
                                ------------------


    scftype = RHF 
    nclosed =   28
      nopen =    0
  variables =     3472
  tolerance =   1.0D-04
  max. iter =  100

 SCF residual:    4.3196399927135056E-008

            ----- linear solve (tol: 1.0E-04 prod-acc: 3.0E-12) -----

               iter nbas    rnorm     rnorm-scal   ratio     time
               ---- ---- ----------- ----------- --------- -------
                  1    1  2.3571E-02  1.3131E-01    0.0000   192.8
                  2    2  7.9684E-03  4.4390E-02    0.3381   194.7
                  3    3  1.1739E-03  6.5393E-03    0.1473   196.6
                  4    4  2.2412E-04  1.2485E-03    0.1909   198.3
                  5    5  2.0613E-05  1.1483E-04    0.0920   199.9
                  6    6  2.2777E-06  1.2688E-05    0.1105   201.5

 CPHF converged to   1.3D-05 in    6 iters

                Dipole Moments (a.u.)
                --------------
         Nuclear       SCF       SCF+MP2
       ----------- ----------- -----------
 X       0.000000   -0.000000   -0.000000
 Y       0.000000   -0.000000   -0.000000
 Z       0.000000   -0.000000   -0.000000


 MP2 RHF      natural orbital occupation numbers


              1      
    1    2.0000
    2    2.0000
    3    2.0000
    4    2.0000
    5    2.0000
    6    2.0000
    7    2.0000
    8    2.0000
    9    1.9859
   10    1.9799
   11    1.9799
   12    1.9799
   13    1.9744
   14    1.9744
   15    1.9744
   16    1.9696
   17    1.9658
   18    1.9601
   19    1.9601
   20    1.9601
   21    1.9523
   22    1.9523
   23    1.9477
   24    1.9477
   25    1.9477
   26    1.9434
   27    1.9434
   28    1.9434
   29    0.0335
   30    0.0335
   31    0.0335
   32    0.0305
   33    0.0305
   34    0.0305
   35    0.0250
   36    0.0250
   37    0.0250
   38    0.0249
   39    0.0249
   40    0.0207
   41    0.0194
   42    0.0180
   43    0.0180
   44    0.0180
   45    0.0177
   46    0.0177
   47    0.0177
   48    0.0137
   49    0.0137
   50    0.0133
   51    0.0127
   52    0.0127
   53    0.0127
   54    0.0121
   55    0.0121
   56    0.0113
   57    0.0110
   58    0.0110
   59    0.0110
   60    0.0067
   61    0.0067
   62    0.0067
   63    0.0057
   64    0.0057
   65    0.0057
   66    0.0035
   67    0.0035
   68    0.0035
   69    0.0034
   70    0.0034
   71    0.0034
   72    0.0034
   73    0.0033
   74    0.0033
   75    0.0033
   76    0.0032
   77    0.0032
   78    0.0032
   79    0.0028
   80    0.0028
   81    0.0027
   82    0.0027
   83    0.0027
   84    0.0023
   85    0.0020
   86    0.0020
   87    0.0018
   88    0.0018
   89    0.0018
   90    0.0017
   91    0.0017
   92    0.0017
   93    0.0016
   94    0.0016
   95    0.0016
   96    0.0014
   97    0.0014
   98    0.0014
   99    0.0014
  100    0.0012
  101    0.0012
  102    0.0012
  103    0.0010
  104    0.0010
  105    0.0010
  106    0.0009
  107    0.0009
  108    0.0009
  109    0.0009
  110    0.0008
  111    0.0008
  112    0.0008
  113    0.0007
  114    0.0007
  115    0.0007
  116    0.0006
  117    0.0006
  118    0.0006
  119    0.0006
  120    0.0006
  121    0.0004
  122    0.0004
  123    0.0004
  124    0.0004
  125    0.0004
  126    0.0004
  127    0.0004
  128    0.0004
  129    0.0003
  130    0.0003
  131    0.0003
  132    0.0003
  133    0.0003
  134    0.0003
  135    0.0003
  136    0.0002
  137    0.0002
  138    0.0002
  139    0.0001
  140    0.0001
  141    0.0001
  142    0.0001
  143    0.0001
  144    0.0001
  145    0.0001
  146    0.0001
  147    0.0001
  148    0.0001
  149    0.0000
  150    0.0000
  151    0.0000
  152    0.0000

  MP2 natural orbitals output to ./cubane.mp2nos

  Using symmetry


                         mp2 ENERGY GRADIENTS

    atom               coordinates                        gradient
                 x          y          z           x          y          z
   1 H       2.665707   2.665707   2.665707   -0.005875  -0.005875  -0.005875
   2 H      -2.665707  -2.665707   2.665707    0.005875   0.005875  -0.005875
   3 H      -2.665707   2.665707  -2.665707    0.005875  -0.005875   0.005875
   4 H       2.665707  -2.665707  -2.665707   -0.005875   0.005875   0.005875
   5 H       2.665707   2.665707  -2.665707   -0.005875  -0.005875   0.005875
   6 H      -2.665707  -2.665707  -2.665707    0.005875   0.005875   0.005875
   7 H       2.665707  -2.665707   2.665707   -0.005875   0.005875  -0.005875
   8 H      -2.665707   2.665707   2.665707    0.005875  -0.005875  -0.005875
   9 C       1.481016   1.481016   1.481016    0.001327   0.001327   0.001327
  10 C      -1.481016  -1.481016   1.481016   -0.001327  -0.001327   0.001327
  11 C      -1.481016   1.481016  -1.481016   -0.001327   0.001327  -0.001327
  12 C       1.481016  -1.481016  -1.481016    0.001327  -0.001327  -0.001327
  13 C       1.481016   1.481016  -1.481016    0.001327   0.001327  -0.001327
  14 C      -1.481016  -1.481016  -1.481016   -0.001327  -0.001327  -0.001327
  15 C       1.481016  -1.481016   1.481016    0.001327  -0.001327   0.001327
  16 C      -1.481016   1.481016   1.481016   -0.001327   0.001327   0.001327

                 ----------------------------------------
                 |  Time  |  1-e(secs)   |  2-e(secs)   |
                 ----------------------------------------
                 |  CPU   |       0.01   |       4.83   |
                 ----------------------------------------
                 |  WALL  |       0.01   |       4.83   |
                 ----------------------------------------
 -----------------------
 Performance information
 -----------------------

 Timer overhead =  0.00D+00 seconds/call

               Nr. of calls         CPU time (s)                 Wall time (s)                GFlops
             ---------------    -------------------     ------------------------------   -------------------
Name         Min   Avg   Max    Min     Avg     Max     Min     Avg     Max   Mx/calls   Min     Max     Sum
mp2: moin     1     1     1    97.     97.     97.     1.09E+2 1.09E+2 1.09E+2 1.09E+2   0.0     0.0     0.0   
mp2: make     1     1     1    3.2     3.2     3.2      3.1     3.1     3.1     3.1      0.0     0.0     0.0   
mp2: pija     1     1     1   0.64    0.64    0.64     0.39    0.39    0.39    0.39      0.0     0.0     0.0   
mp2: wija     1     1     1   0.68    0.68    0.68     0.41    0.41    0.41    0.41      0.0     0.0     0.0   
mp2: lai      1     1     1    13.     13.     13.      11.     11.     11.     11.      0.0     0.0     0.0   
mp2: back     1     1     1    1.9     1.9     1.9      1.4     1.4     1.4     1.4      0.0     0.0     0.0   
mp2: nons     1     1     1    8.6     8.6     8.6      8.6     8.6     8.6     8.6      0.0     0.0     0.0   
mp2: laif     1     1     1    31.     31.     31.      31.     31.     31.     31.      0.0     0.0     0.0   
mp2: cphf     1     1     1    13.     13.     13.      13.     13.     13.     13.      0.0     0.0     0.0   
mp2: wijf     1     1     1    32.     32.     32.      32.     32.     32.     32.      0.0     0.0     0.0   
mp2: sep      1     1     1    5.0     5.0     5.0      5.0     5.0     5.0     5.0      0.0     0.0     0.0   
mp2: tota     1     1     1   2.06E+2 2.06E+2 2.06E+2  2.15E+2 2.15E+2 2.15E+2 2.15E+2   0.0     0.0     0.0   

 The average no. of pstat calls per process was 1.20D+01
 with a timing overhead of 0.00D+00s


@ Step       Energy      Delta E   Gmax     Grms     Xrms     Xmax   Walltime
@ ---- ---------------- -------- -------- -------- -------- -------- --------
@    0    -308.48234363  0.0D+00  0.01018  0.00247  0.00000  0.00000    248.8
                                                                    



                                Z-matrix (autoz)
                                -------- 

 Units are Angstrom for bonds and degrees for angles

      Type          Name      I     J     K     L     M      Value     Gradient
      ----------- --------  ----- ----- ----- ----- ----- ---------- ----------
    1 Stretch                  1     9                       1.08584   -0.01018
    2 Stretch                  2    10                       1.08584   -0.01018
    3 Stretch                  3    11                       1.08584   -0.01018
    4 Stretch                  4    12                       1.08584   -0.01018
    5 Stretch                  5    13                       1.08584   -0.01018
    6 Stretch                  6    14                       1.08584   -0.01018
    7 Stretch                  7    15                       1.08584   -0.01018
    8 Stretch                  8    16                       1.08584   -0.01018
    9 Stretch                  9    13                       1.56744   -0.00455
   10 Stretch                  9    15                       1.56744   -0.00455
   11 Stretch                  9    16                       1.56744   -0.00455
   12 Stretch                 10    14                       1.56744   -0.00455
   13 Stretch                 10    15                       1.56744   -0.00455
   14 Stretch                 10    16                       1.56744   -0.00455
   15 Stretch                 11    13                       1.56744   -0.00455
   16 Stretch                 11    14                       1.56744   -0.00455
   17 Stretch                 11    16                       1.56744   -0.00455
   18 Stretch                 12    13                       1.56744   -0.00455
   19 Stretch                 12    14                       1.56744   -0.00455
   20 Stretch                 12    15                       1.56744   -0.00455
   21 Bend                     1     9    13               125.26439    0.00000
   22 Bend                     1     9    15               125.26439   -0.00000
   23 Bend                     1     9    16               125.26439   -0.00000
   24 Bend                     2    10    14               125.26439    0.00000
   25 Bend                     2    10    15               125.26439   -0.00000
   26 Bend                     2    10    16               125.26439   -0.00000
   27 Bend                     3    11    13               125.26439   -0.00000
   28 Bend                     3    11    14               125.26439   -0.00000
   29 Bend                     3    11    16               125.26439    0.00000
   30 Bend                     4    12    13               125.26439   -0.00000
   31 Bend                     4    12    14               125.26439    0.00000
   32 Bend                     4    12    15               125.26439    0.00000
   33 Bend                     5    13     9               125.26439    0.00000
   34 Bend                     5    13    11               125.26439   -0.00000
   35 Bend                     5    13    12               125.26439   -0.00000
   36 Bend                     6    14    10               125.26439    0.00000
   37 Bend                     6    14    11               125.26439   -0.00000
   38 Bend                     6    14    12               125.26439   -0.00000
   39 Bend                     7    15     9               125.26439   -0.00000
   40 Bend                     7    15    10               125.26439   -0.00000
   41 Bend                     7    15    12               125.26439    0.00000
   42 Bend                     8    16     9               125.26439   -0.00000
   43 Bend                     8    16    10               125.26439   -0.00000
   44 Bend                     8    16    11               125.26439    0.00000
   45 Bend                     9    13    11                90.00000   -0.00000
   46 Bend                     9    13    12                90.00000    0.00000
   47 Bend                     9    15    10                90.00000    0.00000
   48 Bend                     9    15    12                90.00000   -0.00000
   49 Bend                     9    16    10                90.00000    0.00000
[...]
   52 Bend                    10    14    12                90.00000    0.00000
   53 Bend                    10    15    12                90.00000    0.00000
   54 Bend                    10    16    11                90.00000    0.00000
   55 Bend                    11    13    12                90.00000    0.00000
   56 Bend                    11    14    12                90.00000    0.00000
   57 Bend                    13     9    15                90.00000    0.00000
   58 Bend                    13     9    16                90.00000    0.00000
   59 Bend                    13    11    14                90.00000    0.00000
   60 Bend                    13    11    16                90.00000    0.00000
   61 Bend                    13    12    14                90.00000    0.00000
   62 Bend                    13    12    15                90.00000    0.00000
   63 Bend                    14    10    15                90.00000    0.00000
   64 Bend                    14    10    16                90.00000    0.00000
   65 Bend                    14    11    16                90.00000    0.00000
   66 Bend                    14    12    15                90.00000    0.00000
   67 Bend                    15     9    16                90.00000    0.00000
   68 Bend                    15    10    16                90.00000    0.00000
   69 Torsion                  1     9    13     5           0.00000    0.00000
   70 Torsion                  1     9    13    11        -135.00000    0.00000
   71 Torsion                  1     9    13    12         135.00000   -0.00000
   72 Torsion                  1     9    15     7           0.00000    0.00000
   73 Torsion                  1     9    15    10         135.00000   -0.00000
   74 Torsion                  1     9    15    12        -135.00000    0.00000
   75 Torsion                  1     9    16     8           0.00000    0.00000
   76 Torsion                  1     9    16    10        -135.00000    0.00000
   77 Torsion                  1     9    16    11         135.00000   -0.00000
   78 Torsion                  2    10    14     6           0.00000    0.00000
   79 Torsion                  2    10    14    11         135.00000   -0.00000
   80 Torsion                  2    10    14    12        -135.00000    0.00000
   81 Torsion                  2    10    15     7           0.00000    0.00000
   82 Torsion                  2    10    15     9        -135.00000    0.00000
   83 Torsion                  2    10    15    12         135.00000   -0.00000
   84 Torsion                  2    10    16     8           0.00000    0.00000
   85 Torsion                  2    10    16     9         135.00000   -0.00000
   86 Torsion                  2    10    16    11        -135.00000    0.00000
   87 Torsion                  3    11    13     5           0.00000    0.00000
   88 Torsion                  3    11    13     9         135.00000   -0.00000
   89 Torsion                  3    11    13    12        -135.00000    0.00000
   90 Torsion                  3    11    14     6           0.00000    0.00000
   91 Torsion                  3    11    14    10        -135.00000    0.00000
   92 Torsion                  3    11    14    12         135.00000   -0.00000
   93 Torsion                  3    11    16     8           0.00000    0.00000
   94 Torsion                  3    11    16     9        -135.00000    0.00000
   95 Torsion                  3    11    16    10         135.00000   -0.00000
   96 Torsion                  4    12    13     5           0.00000    0.00000
   97 Torsion                  4    12    13     9        -135.00000    0.00000
   98 Torsion                  4    12    13    11         135.00000   -0.00000
   99 Torsion                  4    12    14     6           0.00000    0.00000
  100 Torsion                  4    12    14    10         135.00000   -0.00000
  101 Torsion                  4    12    14    11        -135.00000    0.00000
  102 Torsion                  4    12    15     7           0.00000    0.00000
  103 Torsion                  4    12    15     9         135.00000   -0.00000
  104 Torsion                  4    12    15    10        -135.00000    0.00000
  105 Torsion                  5    13     9    15        -135.00000    0.00000
  106 Torsion                  5    13     9    16         135.00000   -0.00000
  107 Torsion                  5    13    11    14         135.00000   -0.00000
  108 Torsion                  5    13    11    16        -135.00000    0.00000
  109 Torsion                  5    13    12    14        -135.00000    0.00000
  110 Torsion                  5    13    12    15         135.00000   -0.00000
  111 Torsion                  6    14    10    15         135.00000   -0.00000
  112 Torsion                  6    14    10    16        -135.00000    0.00000
  113 Torsion                  6    14    11    13        -135.00000    0.00000
  114 Torsion                  6    14    11    16         135.00000   -0.00000
  115 Torsion                  6    14    12    13         135.00000   -0.00000
  116 Torsion                  6    14    12    15        -135.00000    0.00000
  117 Torsion                  7    15     9    13         135.00000   -0.00000
  118 Torsion                  7    15     9    16        -135.00000    0.00000
  119 Torsion                  7    15    10    14        -135.00000    0.00000
  120 Torsion                  7    15    10    16         135.00000   -0.00000
  121 Torsion                  7    15    12    13        -135.00000    0.00000
  122 Torsion                  7    15    12    14         135.00000   -0.00000
  123 Torsion                  8    16     9    13        -135.00000    0.00000
  124 Torsion                  8    16     9    15         135.00000   -0.00000
  125 Torsion                  8    16    10    14         135.00000   -0.00000
  126 Torsion                  8    16    10    15        -135.00000    0.00000
  127 Torsion                  8    16    11    13         135.00000   -0.00000
  128 Torsion                  8    16    11    14        -135.00000    0.00000
  129 Torsion                  9    13    11    14         -90.00000    0.00000
  130 Torsion                  9    13    11    16           0.00000    0.00000
  131 Torsion                  9    13    12    14          90.00000    0.00000
  132 Torsion                  9    13    12    15           0.00000    0.00000
  133 Torsion                  9    15    10    14          90.00000    0.00000
  134 Torsion                  9    15    10    16           0.00000    0.00000
  135 Torsion                  9    15    12    13           0.00000    0.00000
  136 Torsion                  9    15    12    14         -90.00000    0.00000
  137 Torsion                  9    16    10    14         -90.00000    0.00000
  138 Torsion                  9    16    10    15           0.00000    0.00000
  139 Torsion                  9    16    11    13           0.00000    0.00000
  140 Torsion                  9    16    11    14          90.00000    0.00000
  141 Torsion                 10    14    11    13          90.00000    0.00000
  142 Torsion                 10    14    11    16           0.00000    0.00000
  143 Torsion                 10    14    12    13         -90.00000    0.00000
  144 Torsion                 10    14    12    15           0.00000    0.00000
  145 Torsion                 10    15     9    13         -90.00000    0.00000
  146 Torsion                 10    15     9    16           0.00000    0.00000
  147 Torsion                 10    15    12    13          90.00000    0.00000
  148 Torsion                 10    15    12    14           0.00000    0.00000
  149 Torsion                 10    16     9    13          90.00000    0.00000
  150 Torsion                 10    16     9    15           0.00000    0.00000
  151 Torsion                 10    16    11    13         -90.00000    0.00000
  152 Torsion                 10    16    11    14           0.00000    0.00000
  153 Torsion                 11    13     9    15          90.00000    0.00000
  154 Torsion                 11    13     9    16           0.00000    0.00000
  155 Torsion                 11    13    12    14           0.00000    0.00000
  156 Torsion                 11    13    12    15         -90.00000    0.00000
  157 Torsion                 11    14    10    15         -90.00000    0.00000
  158 Torsion                 11    14    10    16           0.00000    0.00000
  159 Torsion                 11    14    12    13           0.00000    0.00000
  160 Torsion                 11    14    12    15          90.00000    0.00000
  161 Torsion                 11    16     9    13           0.00000    0.00000
  162 Torsion                 11    16     9    15         -90.00000    0.00000
  163 Torsion                 11    16    10    14           0.00000    0.00000
  164 Torsion                 11    16    10    15          90.00000    0.00000
  165 Torsion                 12    13     9    15           0.00000    0.00000
  166 Torsion                 12    13     9    16         -90.00000    0.00000
  167 Torsion                 12    13    11    14           0.00000    0.00000
  168 Torsion                 12    13    11    16          90.00000    0.00000
  169 Torsion                 12    14    10    15           0.00000    0.00000
  170 Torsion                 12    14    10    16          90.00000    0.00000
  171 Torsion                 12    14    11    13           0.00000    0.00000
  172 Torsion                 12    14    11    16         -90.00000    0.00000
  173 Torsion                 12    15     9    13           0.00000    0.00000
  174 Torsion                 12    15     9    16          90.00000    0.00000
  175 Torsion                 12    15    10    14           0.00000    0.00000
  176 Torsion                 12    15    10    16         -90.00000    0.00000

 ==============================================================================
                                internuclear distances
 ------------------------------------------------------------------------------
       center one      |      center two      | atomic units |  angstroms
 ------------------------------------------------------------------------------
    9 C                |   1 H                |     2.07954  |     1.10044
   10 C                |   2 H                |     2.07954  |     1.10044
   11 C                |   3 H                |     2.07954  |     1.10044
   12 C                |   4 H                |     2.07954  |     1.10044
   13 C                |   5 H                |     2.07954  |     1.10044
   13 C                |   9 C                |     2.97863  |     1.57622
   13 C                |  11 C                |     2.97863  |     1.57622
   13 C                |  12 C                |     2.97863  |     1.57622
   14 C                |   6 H                |     2.07954  |     1.10044
   14 C                |  10 C                |     2.97863  |     1.57622
   14 C                |  11 C                |     2.97863  |     1.57622
   14 C                |  12 C                |     2.97863  |     1.57622
   15 C                |   7 H                |     2.07954  |     1.10044
   15 C                |   9 C                |     2.97863  |     1.57622
   15 C                |  10 C                |     2.97863  |     1.57622
   15 C                |  12 C                |     2.97863  |     1.57622
   16 C                |   8 H                |     2.07954  |     1.10044
   16 C                |   9 C                |     2.97863  |     1.57622
   16 C                |  10 C                |     2.97863  |     1.57622
   16 C                |  11 C                |     2.97863  |     1.57622
 ------------------------------------------------------------------------------
                         number of included internuclear distances:         20
 ==============================================================================



 ==============================================================================
                                 internuclear angles
 ------------------------------------------------------------------------------
        center 1       |       center 2       |       center 3       |  degrees
 ------------------------------------------------------------------------------
    1 H                |   9 C                |  13 C                |   125.26
    1 H                |   9 C                |  15 C                |   125.26
    1 H                |   9 C                |  16 C                |   125.26
   13 C                |   9 C                |  15 C                |    90.00
   13 C                |   9 C                |  16 C                |    90.00
   15 C                |   9 C                |  16 C                |    90.00
    2 H                |  10 C                |  14 C                |   125.26
    2 H                |  10 C                |  15 C                |   125.26
    2 H                |  10 C                |  16 C                |   125.26
   14 C                |  10 C                |  15 C                |    90.00
   14 C                |  10 C                |  16 C                |    90.00
   15 C                |  10 C                |  16 C                |    90.00
    3 H                |  11 C                |  13 C                |   125.26
    3 H                |  11 C                |  14 C                |   125.26
    3 H                |  11 C                |  16 C                |   125.26
   13 C                |  11 C                |  14 C                |    90.00
   13 C                |  11 C                |  16 C                |    90.00
   14 C                |  11 C                |  16 C                |    90.00
    4 H                |  12 C                |  13 C                |   125.26
    4 H                |  12 C                |  14 C                |   125.26
    4 H                |  12 C                |  15 C                |   125.26
   13 C                |  12 C                |  14 C                |    90.00
   13 C                |  12 C                |  15 C                |    90.00
   14 C                |  12 C                |  15 C                |    90.00
    5 H                |  13 C                |   9 C                |   125.26
    5 H                |  13 C                |  11 C                |   125.26
    5 H                |  13 C                |  12 C                |   125.26
    9 C                |  13 C                |  11 C                |    90.00
    9 C                |  13 C                |  12 C                |    90.00
   11 C                |  13 C                |  12 C                |    90.00
    6 H                |  14 C                |  10 C                |   125.26
    6 H                |  14 C                |  11 C                |   125.26
    6 H                |  14 C                |  12 C                |   125.26
   10 C                |  14 C                |  11 C                |    90.00
   10 C                |  14 C                |  12 C                |    90.00
   11 C                |  14 C                |  12 C                |    90.00
    7 H                |  15 C                |   9 C                |   125.26
    7 H                |  15 C                |  10 C                |   125.26
    7 H                |  15 C                |  12 C                |   125.26
    9 C                |  15 C                |  10 C                |    90.00
    9 C                |  15 C                |  12 C                |    90.00
   10 C                |  15 C                |  12 C                |    90.00
    8 H                |  16 C                |   9 C                |   125.26
    8 H                |  16 C                |  10 C                |   125.26
    8 H                |  16 C                |  11 C                |   125.26
    9 C                |  16 C                |  10 C                |    90.00
    9 C                |  16 C                |  11 C                |    90.00
   10 C                |  16 C                |  11 C                |    90.00
 ------------------------------------------------------------------------------
                            number of included internuclear angles:         48
 ==============================================================================




 Task  times  cpu:     1196.6s     wall:     1197.8s
 Summary of allocated global arrays
-----------------------------------
  No active global arrays



                         GA Statistics for process    0
                         ------------------------------

       create   destroy   get      put      acc     scatter   gather  read&inc
calls: 2508     2508     4.82e+06 2.97e+06 5.65e+06    0        0     5.32e+04 
number of processes/call 1.00e+00 1.00e+00 1.00e+00 0.00e+00 0.00e+00
bytes total:             1.36e+09 2.30e+09 1.61e+09 0.00e+00 0.00e+00 4.25e+05
bytes remote:            0.00e+00 0.00e+00 0.00e+00 0.00e+00 0.00e+00 0.00e+00
Max memory consumed for GA by this process: 5920768 bytes
MA_summarize_allocated_blocks: starting scan ...
MA_summarize_allocated_blocks: scan completed: 0 heap blocks, 0 stack blocks
MA usage statistics:

	allocation statistics:
					      heap	     stack
					      ----	     -----
	current number of blocks	         0	         0
	maximum number of blocks	        25	        36
	current total bytes		         0	         0
	maximum total bytes		     80120	  26260344
	maximum total K-bytes		        81	     26261
	maximum total M-bytes		         1	        27


                                NWChem Input Module
                                -------------------





                                     CITATION
                                     --------
                Please cite the following reference when publishing
                           results obtained with NWChem:

                 M. Valiev, E.J. Bylaska, N. Govind, K. Kowalski,
              T.P. Straatsma, H.J.J. van Dam, D. Wang, J. Nieplocha,
                        E. Apra, T.L. Windus, W.A. de Jong
                 "NWChem: a comprehensive and scalable open-source
                  solution for large scale molecular simulations"
                      Comput. Phys. Commun. 181, 1477 (2010)
                           doi:10.1016/j.cpc.2010.04.018

                              AUTHORS & CONTRIBUTORS
                              ----------------------
          E. Apra, E. J. Bylaska, W. A. de Jong, N. Govind, K. Kowalski,
       T. P. Straatsma, M. Valiev, H. J. J. van Dam, D. Wang, T. L. Windus,
        J. Hammond, J. Autschbach, K. Bhaskaran-Nair, J. Brabec, K. Lopata,
          F. Aquino, S. Hirata, M. T. Hackler, T. Risthaus, M. Malagoli,
   A. Otero-de-la-Roza, J. Mullin, P. Nichols, R. Peverati, J. Pittner, Y. Zhao,
         P.-D. Fan , A. Fonari, R. J. Harrison, M. Dupuis, D. Silverstein,
    D. M. A. S mith, J. Nieplocha, V. Tipparaju, M. Krishnan, B. E. Van Kuiken,
        A. Vazquez-Mayagoitia, L. Jensen, M. Swart, Q. Wu, T. Van Voorhis,
     A. A. Auer, M. Nooijen, L. D. Crosby, E. Brown, G. Cisneros, G. I . Fann,
     H. Fruchtl, J. Garza, K. Hirao, R. Kendall, J. A. Nichols, K. Tsemekhman,
     K. Wolinski, J. Anchell, D. Bernholdt, P. Borowski , T. Clark, D. Clerc,
      H. Dachsel, M. Deegan, K. Dyall, D. Elwood, E. Glendening, M. Gutowski,
      A. Hess, J. Jaffe, B. Johnson, J. Ju, R. Kobayashi, R. Kutteh, Z. Lin,
   R. Littlefield, X. Long, B. Meng, T. Nakajima, S. Niu, L. Pollack, M. Rosing,
   K. Glaesemann, G. Sandrone, M. Stave, H. Taylor, G. Thomas, J. H. van Lenthe,
                                A. Wong, Z. Zhang.

 Total times  cpu:     1196.8s     wall:     1198.5s
