
                                 *****************
                                 * O   R   C   A *
                                 *****************

           --- An Ab Initio, DFT and Semiempirical electronic structure package ---

                  #######################################################
                  #                        -***-                        #
                  #  Department of molecular theory and spectroscopy    #
                  #              Directorship: Frank Neese              #
                  # Max Planck Institute for Chemical Energy Conversion #
                  #                  D-45470 Muelheim/Ruhr              #
                  #                       Germany                       #
                  #                                                     #
                  #                  All rights reserved                #
                  #                        -***-                        #
                  #######################################################


                         Program Version 4.0.0 -  RELEASE  -


 With contributions from (in alphabetic order):
   Daniel Aravena         : Magnetic Properties
   Michael Atanasov       : Ab Initio Ligand Field Theory
   Ute Becker             : Parallelization
   Martin Brehm           : Molecular dynamics
   Dmytro Bykov           : SCF Hessian
   Vijay G. Chilkuri      : MRCI spin determinant printing
   Dipayan Datta          : RHF DLPNO-CCSD density
   Achintya Kumar Dutta   : EOM-CC, STEOM-CC
   Dmitry Ganyushin       : Spin-Orbit,Spin-Spin,Magnetic field MRCI
   Yang Guo               : DLPNO-NEVPT2, CIM, IAO-localization
   Andreas Hansen         : Spin unrestricted coupled pair/coupled cluster methods
   Lee Huntington         : MR-EOM, pCC
   Robert Izsak           : Overlap fitted RIJCOSX, COSX-SCS-MP3, EOM
   Christian Kollmar      : KDIIS, OOCD, Brueckner-CCSD(T), CCSD density
   Simone Kossmann        : Meta GGA functionals, TD-DFT gradient, OOMP2, MP2 Hessian
   Martin Krupicka        : AUTO-CI
   Dagmar Lenk            : GEPOL surface
   Dimitrios Liakos       : Extrapolation schemes; parallel MDCI
   Dimitrios Manganas     : ROCIS; embedding schemes
   Dimitrios Pantazis     : SARC Basis sets
   Taras Petrenko         : DFT Hessian,TD-DFT gradient, ASA, ECA, R-Raman, ABS, FL, XAS/XES, NRVS
   Peter Pinski           : DLPNO-MP2
   Christoph Reimann      : Effective Core Potentials
   Marius Retegan         : Local ZFS, SOC
   Christoph Riplinger    : Optimizer, TS searches, QM/MM, DLPNO-CCSD(T), (RO)-DLPNO pert. Triples
   Tobias Risthaus        : Range-separated hybrids, TD-DFT gradient, RPA, STAB
   Michael Roemelt        : Restricted open shell CIS
   Masaaki Saitow         : Open-shell DLPNO
   Barbara Sandhoefer     : DKH picture change effects
   Kantharuban Sivalingam : CASSCF convergence, NEVPT2, FIC-MRCI
   Georgi Stoychev        : AutoAux
   Boris Wezisla          : Elementary symmetry handling
   Frank Wennmohs         : Technical directorship


 We gratefully acknowledge several colleagues who have allowed us to
 interface, adapt or use parts of their codes:
   Stefan Grimme, W. Hujo, H. Kruse,             : VdW corrections, initial TS optimization,
                  C. Bannwarth                     DFT functionals, gCP, sTDA/sTD-DF
   Ed Valeev                                     : LibInt (2-el integral package), F12 methods
   Garnet Chan, S. Sharma, J. Yang, R. Olivares  : DMRG
   Ulf Ekstrom                                   : XCFun DFT Library
   Mihaly Kallay                                 : mrcc  (arbitrary order and MRCC methods)
   Jiri Pittner, Ondrej Demel                    : Mk-CCSD
   Frank Weinhold                                : gennbo (NPA and NBO analysis)
   Christopher J. Cramer and Donald G. Truhlar   : smd solvation model


 Your calculation uses the libint2 library for the computation of 2-el integrals
 For citations please refer to: http://libint.valeyev.net

 This ORCA versions uses:
   CBLAS   interface :  Fast vector & matrix operations
   LAPACKE interface :  Fast linear algebra routines
   SCALAPACK package :  Parallel linear algebra routines


Your calculation utilizes the basis: def2-TZVP
   F. Weigend and R. Ahlrichs, Phys. Chem. Chem. Phys. 7, 3297 (2005).

================================================================================
                                        WARNINGS
                       Please study these warnings very carefully!
================================================================================


WARNING: Geometry optimizations can change the point-group symmetry!

Warning: TCutStore was < 0. Adjusted to Thresh (uncritical)

WARNING: Geometry Optimization
  ===> : Switching off AutoStart
         For restart on a previous wavefunction, please use MOREAD

INFO   : the flag for use of LIBINT has been found!

================================================================================
                                       INPUT FILE
================================================================================
NAME = /home/vladimir/git/private/ORCA/C8H8/cubane/optimize/DFT/B3LYP/TZVP/./cubane.inp
|  1> # ================================================================
|  2> # Orca input file for cubane B3LYP/def2-TZVP geometry optimization
|  3> # ================================================================
|  4> ! RHF B3LYP def2-TZVP TightSCF TightOPT UseSym
|  5> ! PAL4
|  6> 
|  7> * xyz 0 1
|  8>   H      -1.423     -1.423     -1.423
|  9>   C      -0.788     -0.788     -0.788
| 10>   H      -1.423     -1.423      1.423
| 11>   C      -0.788     -0.788      0.788
| 12>   H      -1.423      1.423     -1.423
| 13>   C      -0.788      0.788     -0.788
| 14>   H       1.423     -1.423     -1.423
| 15>   C       0.788     -0.788     -0.788
| 16>   H      -1.423      1.423      1.423
| 17>   C      -0.788      0.788      0.788
| 18>   H       1.423     -1.423      1.423
| 19>   C       0.788     -0.788      0.788
| 20>   H       1.423      1.423     -1.423
| 21>   C       0.788      0.788     -0.788
| 22>   H       1.423      1.423      1.423
| 23>   C       0.788      0.788      0.788
| 24> *
| 25> 
| 26>                          ****END OF INPUT****
================================================================================

------------------------------------------------------------------------------
                            SYMMETRY HANDLING SETUP
------------------------------------------------------------------------------

------------------
SYMMETRY DETECTION
------------------
Preparing Data                    ... done
Detection Threshold:    SymThresh ... 1.0000e-04

Point Group will now be determined:
Moving molecule to center of mass ... done

POINT GROUP                       ... Oh

The coordinates will now be cleaned:
Moving to standard coord frame    ... done
(Changed one of the main axes to z and another to x)
Structure cleanup requested       ... yes
Selected point group              ... Oh
Cleaning Tolerance      SymThresh ... 1.0000e-04

Some missing point group data is constructed:
Constructing symmetry operations  ... done
Creating atom transfer table      ... done
Creating asymmetric unit          ... done

Cleaning coordinates              ... done

-----------------------------------------------
SYMMETRY-PERFECTED CARTESIAN COORDINATES (A.U.)
-----------------------------------------------
   0 H    -2.68908029   2.68908029   2.68908029 
   1 C    -1.48910419   1.48910419   1.48910419 
   2 H    -2.68908029  -2.68908029   2.68908029 
   3 C    -1.48910419  -1.48910419   1.48910419 
   4 H     2.68908029   2.68908029   2.68908029 
   5 C     1.48910419   1.48910419   1.48910419 
   6 H    -2.68908029   2.68908029  -2.68908029 
   7 C    -1.48910419   1.48910419  -1.48910419 
   8 H     2.68908029  -2.68908029   2.68908029 
   9 C     1.48910419  -1.48910419   1.48910419 
  10 H    -2.68908029  -2.68908029  -2.68908029 
  11 C    -1.48910419  -1.48910419  -1.48910419 
  12 H     2.68908029   2.68908029  -2.68908029 
  13 C     1.48910419   1.48910419  -1.48910419 
  14 H     2.68908029  -2.68908029  -2.68908029 
  15 C     1.48910419  -1.48910419  -1.48910419 

------------------
SYMMETRY REDUCTION
------------------
ORCA supports only abelian point groups.
It is now checked, if the determined point group is supported:
Point Group ( Oh    ) is          ... NOT supported
Reducing to abelian subgroup      ... D2h

(Re)building abelian point group:
Creating Character Table          ... done
Making direct product table       ... done
Constructing symmetry operations  ... done
Creating atom transfer table      ... done
Creating asymmetric unit          ... done

----------------------
ASYMMETRIC UNIT IN D2h
----------------------
  #  AT     MASS              COORDS (A.U.)             BAS
   0 H    1.0080  -2.68908029   2.68908029   2.68908029   0
   1 C   12.0110  -1.48910419   1.48910419   1.48910419   0

----------------------
SYMMETRY ADAPTED BASIS
----------------------
The coefficients for the symmetry adapted linear combinations (SALCS)
of basis functions will now be computed:
Number of basis functions         ...   296
Preparing memory                  ... done
Constructing Gamma(red)           ... done
Reducing Gamma(red)               ... done
Constructing SALCs                ... done
Checking SALC integrity           ... nothing suspicious
Normalizing SALCs                 ... done

Storing the symmetry object:
Symmetry file                     ... /home/vladimir/git/private/ORCA/C8H8/cubane/optimize/DFT/B3LYP/TZVP/./cubane.sym.tmp
Writing symmetry information      ... done

                       *****************************
                       * Geometry Optimization Run *
                       *****************************

Geometry optimization settings:
Update method            Update   .... BFGS
Choice of coordinates    CoordSys .... Redundant Internals
Initial Hessian          InHess   .... Almoef's Model

Convergence Tolerances:
Energy Change            TolE     ....  1.0000e-06 Eh
Max. Gradient            TolMAXG  ....  1.0000e-04 Eh/bohr
RMS Gradient             TolRMSG  ....  3.0000e-05 Eh/bohr
Max. Displacement        TolMAXD  ....  1.0000e-03 bohr
RMS Displacement         TolRMSD  ....  6.0000e-04 bohr

------------------------------------------------------------------------------
                        ORCA OPTIMIZATION COORDINATE SETUP
------------------------------------------------------------------------------

The optimization will be done in new redundant internal coordinates
Making redundant internal coordinates   ...  (new redundants) done
Evaluating the initial hessian          ...  (Almloef) done
Evaluating the coordinates              ...  done
Calculating the B-matrix                .... done
Calculating the G-matrix                .... done
Diagonalizing the G-matrix              .... done
The first mode is                       ....  134
The number of degrees of freedom        ....   42

    -----------------------------------------------------------------
                    Redundant Internal Coordinates


    -----------------------------------------------------------------
         Definition                    Initial Value    Approx d2E/dq
    -----------------------------------------------------------------
      1. B(C   1,H   0)                  1.0999         0.347300   
      2. B(C   3,H   2)                  1.0999         0.347300   
      3. B(C   3,C   1)                  1.5760         0.315491   
      4. B(C   5,H   4)                  1.0999         0.347300   
      5. B(C   5,C   1)                  1.5760         0.315491   
      6. B(C   7,H   6)                  1.0999         0.347300   
      7. B(C   7,C   1)                  1.5760         0.315491   
      8. B(C   9,H   8)                  1.0999         0.347300   
      9. B(C   9,C   5)                  1.5760         0.315491   
     10. B(C   9,C   3)                  1.5760         0.315491   
     11. B(C  11,H  10)                  1.0999         0.347300   
     12. B(C  11,C   7)                  1.5760         0.315491   
     13. B(C  11,C   3)                  1.5760         0.315491   
     14. B(C  13,C   7)                  1.5760         0.315491   
     15. B(C  13,C   5)                  1.5760         0.315491   
     16. B(C  13,H  12)                  1.0999         0.347300   
     17. B(C  15,H  14)                  1.0999         0.347300   
     18. B(C  15,C  13)                  1.5760         0.315491   
     19. B(C  15,C  11)                  1.5760         0.315491   
     20. B(C  15,C   9)                  1.5760         0.315491   
     21. A(H   0,C   1,C   3)          125.2644         0.313640   
     22. A(H   0,C   1,C   7)          125.2644         0.313640   
     23. A(C   3,C   1,C   5)           90.0000         0.343147   
     24. A(H   0,C   1,C   5)          125.2644         0.313640   
     25. A(C   5,C   1,C   7)           90.0000         0.343147   
     26. A(C   3,C   1,C   7)           90.0000         0.343147   
     27. A(C   1,C   3,C  11)           90.0000         0.343147   
     28. A(C   1,C   3,C   9)           90.0000         0.343147   
     29. A(C   1,C   3,H   2)          125.2644         0.313640   
     30. A(H   2,C   3,C  11)          125.2644         0.313640   
     31. A(C   9,C   3,C  11)           90.0000         0.343147   
     32. A(H   2,C   3,C   9)          125.2644         0.313640   
     33. A(H   4,C   5,C  13)          125.2644         0.313640   
     34. A(C   9,C   5,C  13)           90.0000         0.343147   
     35. A(H   4,C   5,C   9)          125.2644         0.313640   
     36. A(C   1,C   5,C  13)           90.0000         0.343147   
     37. A(C   1,C   5,C   9)           90.0000         0.343147   
     38. A(C   1,C   5,H   4)          125.2644         0.313640   
     39. A(C  11,C   7,C  13)           90.0000         0.343147   
     40. A(C   1,C   7,C  13)           90.0000         0.343147   
     41. A(H   6,C   7,C  11)          125.2644         0.313640   
     42. A(C   1,C   7,C  11)           90.0000         0.343147   
     43. A(C   1,C   7,H   6)          125.2644         0.313640   
     44. A(H   6,C   7,C  13)          125.2644         0.313640   
     45. A(C   3,C   9,H   8)          125.2644         0.313640   
     46. A(C   3,C   9,C   5)           90.0000         0.343147   
     47. A(H   8,C   9,C  15)          125.2644         0.313640   
     48. A(C   5,C   9,C  15)           90.0000         0.343147   
     49. A(C   3,C   9,C  15)           90.0000         0.343147   
     50. A(C   5,C   9,H   8)          125.2644         0.313640   
     51. A(C   7,C  11,H  10)          125.2644         0.313640   
     52. A(C   3,C  11,H  10)          125.2644         0.313640   
     53. A(C   3,C  11,C   7)           90.0000         0.343147   
     54. A(H  10,C  11,C  15)          125.2644         0.313640   
     55. A(C   7,C  11,C  15)           90.0000         0.343147   
     56. A(C   3,C  11,C  15)           90.0000         0.343147   
     57. A(C   5,C  13,C   7)           90.0000         0.343147   
     58. A(H  12,C  13,C  15)          125.2644         0.313640   
     59. A(C   7,C  13,C  15)           90.0000         0.343147   
     60. A(C   5,C  13,C  15)           90.0000         0.343147   
     61. A(C   7,C  13,H  12)          125.2644         0.313640   
     62. A(C   5,C  13,H  12)          125.2644         0.313640   
     63. A(C  13,C  15,H  14)          125.2644         0.313640   
     64. A(C  11,C  15,H  14)          125.2644         0.313640   
     65. A(C   9,C  15,H  14)          125.2644         0.313640   
     66. A(C  11,C  15,C  13)           90.0000         0.343147   
     67. A(C   9,C  15,C  13)           90.0000         0.343147   
     68. A(C   9,C  15,C  11)           90.0000         0.343147   
     69. D(C   9,C   3,C   1,C   5)      0.0000         0.008186   
     70. D(C  11,C   3,C   1,C   5)    -90.0000         0.008186   
     71. D(H   2,C   3,C   1,C   5)    135.0000         0.008186   
     72. D(H   2,C   3,C   1,C   7)   -135.0000         0.008186   
     73. D(C  11,C   3,C   1,C   7)      0.0000         0.008186   
     74. D(C   9,C   3,C   1,H   0)   -135.0000         0.008186   
     75. D(C   9,C   3,C   1,C   7)     90.0000         0.008186   
     76. D(H   2,C   3,C   1,H   0)      0.0000         0.008186   
     77. D(C  11,C   3,C   1,H   0)    135.0000         0.008186   
     78. D(H   4,C   5,C   1,C   3)   -135.0000         0.008186   
     79. D(H   4,C   5,C   1,C   7)    135.0000         0.008186   
     80. D(H   4,C   5,C   1,H   0)      0.0000         0.008186   
     81. D(C  13,C   5,C   1,C   3)     90.0000         0.008186   
     82. D(C   9,C   5,C   1,H   0)    135.0000         0.008186   
     83. D(C  13,C   5,C   1,C   7)      0.0000         0.008186   
     84. D(C   9,C   5,C   1,C   7)    -90.0000         0.008186   
     85. D(C  13,C   5,C   1,H   0)   -135.0000         0.008186   
     86. D(C   9,C   5,C   1,C   3)      0.0000         0.008186   
     87. D(C  11,C   7,C   1,C   5)     90.0000         0.008186   
     88. D(H   6,C   7,C   1,C   5)   -135.0000         0.008186   
     89. D(C  13,C   7,C   1,H   0)    135.0000         0.008186   
     90. D(C  11,C   7,C   1,C   3)      0.0000         0.008186   
     91. D(H   6,C   7,C   1,C   3)    135.0000         0.008186   
     92. D(C  13,C   7,C   1,C   3)    -90.0000         0.008186   
     93. D(H   6,C   7,C   1,H   0)      0.0000         0.008186   
     94. D(C  13,C   7,C   1,C   5)      0.0000         0.008186   
     95. D(C  11,C   7,C   1,H   0)   -135.0000         0.008186   
     96. D(C   5,C   9,C   3,C   1)      0.0000         0.008186   
     97. D(H   8,C   9,C   3,C   1)    135.0000         0.008186   
     98. D(C  15,C   9,C   5,C  13)      0.0000         0.008186   
     99. D(C  15,C   9,C   5,H   4)   -135.0000         0.008186   
    100. D(H   8,C   9,C   5,C  13)    135.0000         0.008186   
    101. D(H   8,C   9,C   5,H   4)      0.0000         0.008186   
    102. D(H   8,C   9,C   5,C   1)   -135.0000         0.008186   
    103. D(C   5,C   9,C   3,C  11)     90.0000         0.008186   
    104. D(C  15,C   9,C   3,H   2)    135.0000         0.008186   
    105. D(C   3,C   9,C   5,C   1)      0.0000         0.008186   
    106. D(C  15,C   9,C   3,C  11)      0.0000         0.008186   
    107. D(C   3,C   9,C   5,C  13)    -90.0000         0.008186   
    108. D(C  15,C   9,C   3,C   1)    -90.0000         0.008186   
    109. D(H   8,C   9,C   3,C  11)   -135.0000         0.008186   
    110. D(C  15,C   9,C   5,C   1)     90.0000         0.008186   
    111. D(H   8,C   9,C   3,H   2)      0.0000         0.008186   
    112. D(C   3,C   9,C   5,H   4)    135.0000         0.008186   
    113. D(C   5,C   9,C   3,H   2)   -135.0000         0.008186   
    114. D(C  15,C  11,C   7,H   6)    135.0000         0.008186   
    115. D(C  15,C  11,C   7,C   1)    -90.0000         0.008186   
    116. D(H  10,C  11,C   7,C  13)   -135.0000         0.008186   
    117. D(H  10,C  11,C   7,C   1)    135.0000         0.008186   
    118. D(C   3,C  11,C   7,C  13)     90.0000         0.008186   
    119. D(C   3,C  11,C   7,H   6)   -135.0000         0.008186   
    120. D(C   3,C  11,C   7,C   1)      0.0000         0.008186   
    121. D(C  15,C  11,C   3,C   9)      0.0000         0.008186   
    122. D(C  15,C  11,C   3,C   1)     90.0000         0.008186   
    123. D(H  10,C  11,C   3,C   1)   -135.0000         0.008186   
    124. D(C   7,C  11,C   3,C   9)    -90.0000         0.008186   
    125. D(C   7,C  11,C   3,H   2)    135.0000         0.008186   
    126. D(H  10,C  11,C   7,H   6)      0.0000         0.008186   
    127. D(C   7,C  11,C   3,C   1)      0.0000         0.008186   
    128. D(H  10,C  11,C   3,H   2)      0.0000         0.008186   
    129. D(H  10,C  11,C   3,C   9)    135.0000         0.008186   
    130. D(C  15,C  11,C   7,C  13)      0.0000         0.008186   
    131. D(C  15,C  11,C   3,H   2)   -135.0000         0.008186   
    132. D(C  15,C  13,C   7,C  11)      0.0000         0.008186   
    133. D(C  15,C  13,C   7,H   6)   -135.0000         0.008186   
    134. D(H  12,C  13,C   7,C  11)    135.0000         0.008186   
    135. D(H  12,C  13,C   7,H   6)      0.0000         0.008186   
    136. D(H  12,C  13,C   7,C   1)   -135.0000         0.008186   
    137. D(C   5,C  13,C   7,H   6)    135.0000         0.008186   
    138. D(C   5,C  13,C   7,C   1)      0.0000         0.008186   
    139. D(C  15,C  13,C   5,C   9)      0.0000         0.008186   
    140. D(C  15,C  13,C   5,H   4)    135.0000         0.008186   
    141. D(C  15,C  13,C   5,C   1)    -90.0000         0.008186   
    142. D(C   5,C  13,C   7,C  11)    -90.0000         0.008186   
    143. D(H  12,C  13,C   5,C   9)   -135.0000         0.008186   
    144. D(H  12,C  13,C   5,H   4)      0.0000         0.008186   
    145. D(H  12,C  13,C   5,C   1)    135.0000         0.008186   
    146. D(C  15,C  13,C   7,C   1)     90.0000         0.008186   
    147. D(C   7,C  13,C   5,C   9)     90.0000         0.008186   
    148. D(C   7,C  13,C   5,H   4)   -135.0000         0.008186   
    149. D(C   7,C  13,C   5,C   1)      0.0000         0.008186   
    150. D(H  14,C  15,C  13,H  12)      0.0000         0.008186   
    151. D(H  14,C  15,C  13,C   5)   -135.0000         0.008186   
    152. D(C  11,C  15,C  13,H  12)   -135.0000         0.008186   
    153. D(C  11,C  15,C  13,C   7)      0.0000         0.008186   
    154. D(C   9,C  15,C  13,H  12)    135.0000         0.008186   
    155. D(C   9,C  15,C  13,C   7)    -90.0000         0.008186   
    156. D(C   9,C  15,C  13,C   5)      0.0000         0.008186   
    157. D(H  14,C  15,C  11,H  10)      0.0000         0.008186   
    158. D(H  14,C  15,C  11,C   7)   -135.0000         0.008186   
    159. D(H  14,C  15,C  11,C   3)    135.0000         0.008186   
    160. D(C  13,C  15,C  11,H  10)    135.0000         0.008186   
    161. D(C  13,C  15,C  11,C   7)      0.0000         0.008186   
    162. D(C  13,C  15,C  11,C   3)    -90.0000         0.008186   
    163. D(C   9,C  15,C  11,H  10)   -135.0000         0.008186   
    164. D(C   9,C  15,C  11,C   7)     90.0000         0.008186   
    165. D(C   9,C  15,C  11,C   3)      0.0000         0.008186   
    166. D(H  14,C  15,C   9,H   8)      0.0000         0.008186   
    167. D(H  14,C  15,C   9,C   5)    135.0000         0.008186   
    168. D(H  14,C  15,C   9,C   3)   -135.0000         0.008186   
    169. D(C  13,C  15,C   9,H   8)   -135.0000         0.008186   
    170. D(C  11,C  15,C  13,C   5)     90.0000         0.008186   
    171. D(C  13,C  15,C   9,C   5)      0.0000         0.008186   
    172. D(C  13,C  15,C   9,C   3)     90.0000         0.008186   
    173. D(C  11,C  15,C   9,H   8)    135.0000         0.008186   
    174. D(H  14,C  15,C  13,C   7)    135.0000         0.008186   
    175. D(C  11,C  15,C   9,C   5)    -90.0000         0.008186   
    176. D(C  11,C  15,C   9,C   3)      0.0000         0.008186   
    -----------------------------------------------------------------

Number of atoms                         .... 16
Number of degrees of freedom            .... 176

         *************************************************************
         *                GEOMETRY OPTIMIZATION CYCLE   1            *
         *************************************************************
---------------------------------
CARTESIAN COORDINATES (ANGSTROEM)
---------------------------------
  H     -1.423000    1.423000    1.423000
  C     -0.788000    0.788000    0.788000
  H     -1.423000   -1.423000    1.423000
  C     -0.788000   -0.788000    0.788000
  H      1.423000    1.423000    1.423000
  C      0.788000    0.788000    0.788000
  H     -1.423000    1.423000   -1.423000
  C     -0.788000    0.788000   -0.788000
  H      1.423000   -1.423000    1.423000
  C      0.788000   -0.788000    0.788000
  H     -1.423000   -1.423000   -1.423000
  C     -0.788000   -0.788000   -0.788000
  H      1.423000    1.423000   -1.423000
  C      0.788000    0.788000   -0.788000
  H      1.423000   -1.423000   -1.423000
  C      0.788000   -0.788000   -0.788000

----------------------------
CARTESIAN COORDINATES (A.U.)
----------------------------
  NO LB      ZA    FRAG     MASS         X           Y           Z
   0 H     1.0000    0     1.008   -2.689080    2.689080    2.689080
   1 C     6.0000    0    12.011   -1.489104    1.489104    1.489104
   2 H     1.0000    0     1.008   -2.689080   -2.689080    2.689080
   3 C     6.0000    0    12.011   -1.489104   -1.489104    1.489104
   4 H     1.0000    0     1.008    2.689080    2.689080    2.689080
   5 C     6.0000    0    12.011    1.489104    1.489104    1.489104
   6 H     1.0000    0     1.008   -2.689080    2.689080   -2.689080
   7 C     6.0000    0    12.011   -1.489104    1.489104   -1.489104
   8 H     1.0000    0     1.008    2.689080   -2.689080    2.689080
   9 C     6.0000    0    12.011    1.489104   -1.489104    1.489104
  10 H     1.0000    0     1.008   -2.689080   -2.689080   -2.689080
  11 C     6.0000    0    12.011   -1.489104   -1.489104   -1.489104
  12 H     1.0000    0     1.008    2.689080    2.689080   -2.689080
  13 C     6.0000    0    12.011    1.489104    1.489104   -1.489104
  14 H     1.0000    0     1.008    2.689080   -2.689080   -2.689080
  15 C     6.0000    0    12.011    1.489104   -1.489104   -1.489104

--------------------------------
INTERNAL COORDINATES (ANGSTROEM)
--------------------------------
 H      0   0   0     0.000000000000     0.00000000     0.00000000
 C      1   0   0     1.099852262806     0.00000000     0.00000000
 H      2   1   0     2.386413836701   103.15923744     0.00000000
 C      3   2   1     1.099852262806    32.63045807   180.00000000
 H      2   1   3     2.386413836701   103.15923744   240.00000000
 C      5   2   1     1.099852262806    32.63045807   180.00000000
 H      2   1   3     2.386413836701   103.15923744   120.00000000
 C      7   2   1     1.099852262806    32.63045807   180.00000000
 H      4   3   2     2.386413836701   103.15923744   120.00000000
 C      9   4   3     1.099852262806    32.63045807   180.00000000
 H      4   3   2     2.386413836701   103.15923744   240.00000000
 C     11   4   3     1.099852262806    32.63045807   180.00000000
 H      6   5   2     2.386413836701   103.15923744   120.00000000
 C     13   6   5     1.099852262806    32.63045807   180.00000000
 H     10   9   4     2.386413836701   103.15923744   240.00000000
 C     15  10   9     1.099852262806    32.63045807   180.00000000

---------------------------
INTERNAL COORDINATES (A.U.)
---------------------------
 H      0   0   0     0.000000000000     0.00000000     0.00000000
 C      1   0   0     2.078419564477     0.00000000     0.00000000
 H      2   1   0     4.509668593566   103.15923744     0.00000000
 C      3   2   1     2.078419564477    32.63045807   180.00000000
 H      2   1   3     4.509668593566   103.15923744   240.00000000
 C      5   2   1     2.078419564477    32.63045807   180.00000000
 H      2   1   3     4.509668593566   103.15923744   120.00000000
 C      7   2   1     2.078419564477    32.63045807   180.00000000
 H      4   3   2     4.509668593566   103.15923744   120.00000000
 C      9   4   3     2.078419564477    32.63045807   180.00000000
 H      4   3   2     4.509668593566   103.15923744   240.00000000
 C     11   4   3     2.078419564477    32.63045807   180.00000000
 H      6   5   2     4.509668593566   103.15923744   120.00000000
 C     13   6   5     2.078419564477    32.63045807   180.00000000
 H     10   9   4     4.509668593566   103.15923744   240.00000000
 C     15  10   9     2.078419564477    32.63045807   180.00000000

---------------------
BASIS SET INFORMATION
---------------------
There are 2 groups of distinct atoms

 Group   1 Type H   : 5s1p contracted to 3s1p pattern {311/1}
 Group   2 Type C   : 11s6p2d1f contracted to 5s3p2d1f pattern {62111/411/11/1}

Atom   0H    basis set group =>   1
Atom   1C    basis set group =>   2
Atom   2H    basis set group =>   1
Atom   3C    basis set group =>   2
Atom   4H    basis set group =>   1
Atom   5C    basis set group =>   2
Atom   6H    basis set group =>   1
Atom   7C    basis set group =>   2
Atom   8H    basis set group =>   1
Atom   9C    basis set group =>   2
Atom  10H    basis set group =>   1
Atom  11C    basis set group =>   2
Atom  12H    basis set group =>   1
Atom  13C    basis set group =>   2
Atom  14H    basis set group =>   1
Atom  15C    basis set group =>   2
-------------------------
ECP PARAMETER INFORMATION
-------------------------





           ************************************************************
           *        Program running with 4 parallel MPI-processes     *
           *              working on a common directory               *
           ************************************************************
------------------------------------------------------------------------------
                           ORCA GTO INTEGRAL CALCULATION
------------------------------------------------------------------------------

                         BASIS SET STATISTICS AND STARTUP INFO

 # of primitive gaussian shells          ...  208
 # of primitive gaussian functions       ...  432
 # of contracted shells                  ...  120
 # of contracted basis functions         ...  296
 Highest angular momentum                ...    3
 Maximum contraction depth               ...    6
 Integral package used                   ... LIBINT
 Integral threshhold            Thresh   ...  2.500e-11
 Primitive cut-off              TCut     ...  2.500e-12


------------------------------ INTEGRAL EVALUATION ----------------------------


 * One electron integrals 

   ECP integrals                          Pre-screening matrix                    ... done
 Shell pair data                         ... done (   0.002 sec)



           ************************************************************
           *        Program running with 4 parallel MPI-processes     *
           *              working on a common directory               *
           ************************************************************
-------------------------------------------------------------------------------
                                 ORCA SCF
-------------------------------------------------------------------------------

------------
SCF SETTINGS
------------
Hamiltonian:
 Density Functional     Method          .... DFT(GTOs)
 Exchange Functional    Exchange        .... B88
   X-Alpha parameter    XAlpha          ....  0.666667
   Becke's b parameter  XBeta           ....  0.004200
 Correlation Functional Correlation     .... LYP
 LDA part of GGA corr.  LDAOpt          .... VWN-5
 Gradients option       PostSCFGGA      .... off
 Hybrid DFT is turned on
   Fraction HF Exchange ScalHFX         ....  0.200000
   Scaling of DF-GGA-X  ScalDFX         ....  0.720000
   Scaling of DF-GGA-C  ScalDFC         ....  0.810000
   Scaling of DF-LDA-C  ScalLDAC        ....  1.000000
   Perturbative correction              ....  0.000000
   NL short-range parameter             ....  4.800000


General Settings:
 Integral files         IntName         .... /home/vladimir/git/private/ORCA/C8H8/cubane/optimize/DFT/B3LYP/TZVP/./cubane
 Hartree-Fock type      HFTyp           .... RHF
 Total Charge           Charge          ....    0
 Multiplicity           Mult            ....    1
 Number of Electrons    NEL             ....   56
 Basis Dimension        Dim             ....  296
 Nuclear Repulsion      ENuc            ....    365.3173763557 Eh

 Symmetry handling      UseSym         .... ON
 Point group                           .... D2h
 Used point group                      .... D2h
 Number of irreps                      .... 8
   Irrep   Ag has   37 symmetry adapted basis functions (ofs=   0)
   Irrep  B1g has   37 symmetry adapted basis functions (ofs=  37)
   Irrep  B2g has   37 symmetry adapted basis functions (ofs=  74)
   Irrep  B3g has   37 symmetry adapted basis functions (ofs= 111)
   Irrep   Au has   37 symmetry adapted basis functions (ofs= 148)
   Irrep  B1u has   37 symmetry adapted basis functions (ofs= 185)
   Irrep  B2u has   37 symmetry adapted basis functions (ofs= 222)
   Irrep  B3u has   37 symmetry adapted basis functions (ofs= 259)

Convergence Acceleration:
 DIIS                   CNVDIIS         .... on
   Start iteration      DIISMaxIt       ....    12
   Startup error        DIISStart       ....  0.200000
   # of expansion vecs  DIISMaxEq       ....     5
   Bias factor          DIISBfac        ....   1.050
   Max. coefficient     DIISMaxC        ....  10.000
 Newton-Raphson         CNVNR           .... off
 SOSCF                  CNVSOSCF        .... on
   Start iteration      SOSCFMaxIt      ....   150
   Startup grad/error   SOSCFStart      ....  0.003300
 Level Shifting         CNVShift        .... on
   Level shift para.    LevelShift      ....    0.2500
   Turn off err/grad.   ShiftErr        ....    0.0010
 Zerner damping         CNVZerner       .... off
 Static damping         CNVDamp         .... on
   Fraction old density DampFac         ....    0.7000
   Max. Damping (<1)    DampMax         ....    0.9800
   Min. Damping (>=0)   DampMin         ....    0.0000
   Turn off err/grad.   DampErr         ....    0.1000
 Fernandez-Rico         CNVRico         .... off

SCF Procedure:
 Maximum # iterations   MaxIter         ....   125
 SCF integral mode      SCFMode         .... Direct
   Integral package                     .... LIBINT
 Reset frequeny         DirectResetFreq ....    20
 Integral Threshold     Thresh          ....  2.500e-11 Eh
 Primitive CutOff       TCut            ....  2.500e-12 Eh

Convergence Tolerance:
 Convergence Check Mode ConvCheckMode   .... Total+1el-Energy
 Convergence forced     ConvForced      .... 0
 Energy Change          TolE            ....  1.000e-08 Eh
 1-El. energy change                    ....  1.000e-05 Eh
 Orbital Gradient       TolG            ....  1.000e-05
 Orbital Rotation angle TolX            ....  1.000e-05
 DIIS Error             TolErr          ....  5.000e-07


Diagonalization of the overlap matrix:
Smallest eigenvalue                        ... 7.372e-07
Time for diagonalization                   ...    0.135 sec
Threshold for overlap eigenvalues          ... 1.000e-08
Number of eigenvalues below threshold      ... 0
Time for construction of square roots      ...    0.008 sec
Producing symmetrization matrix            ... done (   0.004 sec)
Total time needed                          ...    0.147 sec

-------------------
DFT GRID GENERATION
-------------------

General Integration Accuracy     IntAcc      ...  4.340
Radial Grid Type                 RadialGrid  ... Gauss-Chebyshev
Angular Grid (max. acc.)         AngularGrid ... Lebedev-110
Angular grid pruning method      GridPruning ... 3 (G Style)
Weight generation scheme         WeightScheme... Becke
Basis function cutoff            BFCut       ...    1.0000e-11
Integration weight cutoff        WCut        ...    1.0000e-14
Grids for H and He will be reduced by one unit

# of grid points (after initial pruning)     ...  19600 (   0.0 sec)
# of grid points (after weights+screening)   ...  17600 (   0.0 sec)
nearest neighbour list constructed           ...    0.0 sec
Grid point re-assignment to atoms done       ...    0.0 sec
Grid point division into batches done        ...    0.0 sec
Reduced shell lists constructed in    0.1 sec

Total number of grid points                  ...    17600
Total number of batches                      ...      288
Average number of points per batch           ...       61
Average number of grid points per atom       ...     1100
Average number of shells per batch           ...    91.33 (76.11%)
Average number of basis functions per batch  ...   238.73 (80.65%)
Average number of large shells per batch     ...    75.88 (83.08%)
Average number of large basis fcns per batch ...   198.12 (82.99%)
Maximum spatial batch extension              ...  20.34, 17.47, 20.16 au
Average spatial batch extension              ...   0.91,  0.96,  0.88 au

Time for grid setup =    0.091 sec

------------------------------
INITIAL GUESS: MODEL POTENTIAL
------------------------------
Loading Hartree-Fock densities                     ... done
Calculating cut-offs                               ... done
Setting up the integral package                    ... done
Initializing the effective Hamiltonian             ... done
Starting the Coulomb interaction                   ... done (   0.1 sec)
Reading the grid                                   ... done
Mapping shells                                     ... done
Starting the XC term evaluation                    ... done (   0.2 sec)
  promolecular density results
     # of electrons  =     56.060690950
     EX              =    -43.510986306
     EC              =     -1.863242972
     EX+EC           =    -45.374229277
done (   0.0 sec)
Diagonalizing the Hamiltonian                      ... done (   0.0 sec)
Back transforming the eigenvectors                 ... done (   0.0 sec)
Now organizing SCF variables                       ... done
The symmetry of the initial guess is 1-Ag
Irrep occupations for operator 0
    Ag -    5
   B1g -    3
   B2g -    3
   B3g -    3
    Au -    2
   B1u -    4
   B2u -    4
   B3u -    4
                      ------------------
                      INITIAL GUESS DONE (   0.4 sec)
                      ------------------
--------------
SCF ITERATIONS
--------------
ITER       Energy         Delta-E        Max-DP      RMS-DP      [F,P]     Damp
               ***  Starting incremental Fock matrix formation  ***
  0   -309.1776688950   0.000000000000 0.19783491  0.00450810  0.0823234 0.7000
  1   -309.2442133875  -0.066544492482 0.12164237  0.00246321  0.0308889 0.7000
                               ***Turning on DIIS***
  2   -309.2798324466  -0.035619059143 0.32165297  0.00642046  0.0164973 0.0000
  3   -309.3585004546  -0.078668008000 0.03391007  0.00077945  0.0061316 0.0000
  4   -309.3591354298  -0.000634975124 0.00267401  0.00013029  0.0035056 0.0000
                      *** Initiating the SOSCF procedure ***
                           *** Shutting down DIIS ***
                      *** Re-Reading the Fockian *** 
                      *** Removing any level shift *** 
ITER      Energy       Delta-E        Grad      Rot      Max-DP    RMS-DP
  5   -309.35947909  -0.0003436598  0.000188  0.000188  0.001131  0.000031
               *** Restarting incremental Fock matrix formation ***
  6   -309.35948218  -0.0000030931  0.000035  0.000033  0.000143  0.000005
  7   -309.35948222  -0.0000000328  0.000014  0.000010  0.000157  0.000004
  8   -309.35948222  -0.0000000072  0.000004  0.000005  0.000376  0.000009
  9   -309.35948222   0.0000000014  0.000004  0.000003  0.000020  0.000000
                 **** Energy Check signals convergence ****
              ***Rediagonalizing the Fockian in SOSCF/NRSCF***

               *****************************************************
               *                     SUCCESS                       *
               *           SCF CONVERGED AFTER  10 CYCLES          *
               *****************************************************

Setting up the final grid:

General Integration Accuracy     IntAcc      ...  4.670
Radial Grid Type                 RadialGrid  ... Gauss-Chebyshev
Angular Grid (max. acc.)         AngularGrid ... Lebedev-302
Angular grid pruning method      GridPruning ... 3 (G Style)
Weight generation scheme         WeightScheme... Becke
Basis function cutoff            BFCut       ...    1.0000e-11
Integration weight cutoff        WCut        ...    1.0000e-14
Grids for H and He will be reduced by one unit

# of grid points (after initial pruning)     ...  76848 (   0.0 sec)
# of grid points (after weights+screening)   ...  68424 (   0.0 sec)
nearest neighbour list constructed           ...    0.0 sec
Grid point re-assignment to atoms done       ...    0.0 sec
Grid point division into batches done        ...    0.2 sec
Reduced shell lists constructed in    0.3 sec

Total number of grid points                  ...    68424
Total number of batches                      ...     1072
Average number of points per batch           ...       63
Average number of grid points per atom       ...     4276
Average number of shells per batch           ...    84.38 (70.32%)
Average number of basis functions per batch  ...   220.30 (74.43%)
Average number of large shells per batch     ...    68.48 (81.16%)
Average number of large basis fcns per batch ...   176.68 (80.20%)
Maximum spatial batch extension              ...  21.93, 18.16, 21.93 au
Average spatial batch extension              ...   0.61,  0.61,  0.61 au

Final grid set up in    0.4 sec
Final integration                            ... done (   0.6 sec)
Change in XC energy                          ...     0.002976736
Integrated number of electrons               ...    56.000342229
Previous integrated no of electrons          ...    56.028352217

----------------
TOTAL SCF ENERGY
----------------

Total Energy       :         -309.35650549 Eh           -8418.01848 eV

Components:
Nuclear Repulsion  :          365.31737636 Eh            9940.79119 eV
Electronic Energy  :         -674.67388184 Eh          -18358.80967 eV
One Electron Energy:        -1140.87748632 Eh          -31044.85469 eV
Two Electron Energy:          466.20360447 Eh           12686.04502 eV

Virial components:
Potential Energy   :         -616.96503724 Eh          -16788.47217 eV
Kinetic Energy     :          307.60853176 Eh            8370.45369 eV
Virial Ratio       :            2.00568246


DFT components:
N(Alpha)           :       28.000171114729 electrons
N(Beta)            :       28.000171114729 electrons
N(Total)           :       56.000342229458 electrons
E(X)               :      -35.147382834236 Eh       
E(C)               :       -2.199655571102 Eh       
E(XC)              :      -37.347038405339 Eh       

---------------
SCF CONVERGENCE
---------------

  Last Energy change         ...   -1.7363e-09  Tolerance :   1.0000e-08
  Last MAX-Density change    ...    1.2290e-04  Tolerance :   1.0000e-07
  Last RMS-Density change    ...    2.8389e-06  Tolerance :   5.0000e-09
  Last Orbital Gradient      ...    8.6819e-07  Tolerance :   1.0000e-05
  Last Orbital Rotation      ...    2.3334e-07  Tolerance :   1.0000e-05

             **** THE GBW FILE WAS UPDATED (/home/vladimir/git/private/ORCA/C8H8/cubane/optimize/DFT/B3LYP/TZVP/./cubane.gbw) ****
             **** DENSITY FILE WAS UPDATED (/home/vladimir/git/private/ORCA/C8H8/cubane/optimize/DFT/B3LYP/TZVP/./cubane.scfp.tmp) ****
             **** ENERGY FILE WAS UPDATED (/home/vladimir/git/private/ORCA/C8H8/cubane/optimize/DFT/B3LYP/TZVP/./cubane.en.tmp) ****
----------------
ORBITAL ENERGIES
----------------

  NO   OCC          E(Eh)            E(eV)    Irrep 
   0   2.0000     -10.171753      -276.7875    1-Ag
   1   2.0000     -10.171610      -276.7836    1-B1u
   2   2.0000     -10.171610      -276.7836    1-B2u
   3   2.0000     -10.171610      -276.7836    1-B3u
   4   2.0000     -10.171463      -276.7796    1-B1g
   5   2.0000     -10.171463      -276.7796    1-B2g
   6   2.0000     -10.171463      -276.7796    1-B3g
   7   2.0000     -10.171309      -276.7754    1-Au
   8   2.0000      -0.935785       -25.4640    2-Ag
   9   2.0000      -0.719198       -19.5704    2-B3u
  10   2.0000      -0.719198       -19.5704    2-B1u
  11   2.0000      -0.719198       -19.5704    2-B2u
  12   2.0000      -0.554833       -15.0978    2-B2g
  13   2.0000      -0.554833       -15.0978    2-B3g
  14   2.0000      -0.554833       -15.0978    2-B1g
  15   2.0000      -0.527240       -14.3469    3-Ag
  16   2.0000      -0.460719       -12.5368    2-Au
  17   2.0000      -0.428875       -11.6703    4-Ag
  18   2.0000      -0.428875       -11.6703    5-Ag
  19   2.0000      -0.420772       -11.4498    3-B1u
  20   2.0000      -0.420772       -11.4498    3-B2u
  21   2.0000      -0.420772       -11.4498    3-B3u
  22   2.0000      -0.272479        -7.4145    4-B2u
  23   2.0000      -0.272479        -7.4145    4-B1u
  24   2.0000      -0.272479        -7.4145    4-B3u
  25   2.0000      -0.261076        -7.1042    3-B2g
  26   2.0000      -0.261076        -7.1042    3-B3g
  27   2.0000      -0.261076        -7.1042    3-B1g
  28   0.0000       0.039334         1.0703    5-B2u
  29   0.0000       0.039334         1.0703    5-B1u
  30   0.0000       0.039334         1.0703    5-B3u
  31   0.0000       0.045332         1.2336    6-Ag
  32   0.0000       0.099443         2.7060    4-B3g
  33   0.0000       0.099443         2.7060    4-B2g
  34   0.0000       0.099443         2.7060    4-B1g
  35   0.0000       0.103179         2.8077    6-B3u
  36   0.0000       0.103179         2.8077    6-B2u
  37   0.0000       0.103179         2.8077    6-B1u
  38   0.0000       0.114579         3.1179    3-Au
  39   0.0000       0.172815         4.7025    5-B1g
  40   0.0000       0.172815         4.7025    5-B3g
  41   0.0000       0.172815         4.7025    5-B2g
  42   0.0000       0.179649         4.8885    7-Ag
  43   0.0000       0.179649         4.8885    8-Ag
  44   0.0000       0.211113         5.7447    9-Ag
  45   0.0000       0.212806         5.7908    6-B2g
  46   0.0000       0.212807         5.7908    6-B3g
  47   0.0000       0.212807         5.7908    6-B1g
  48   0.0000       0.241381         6.5683    7-B1u
  49   0.0000       0.241381         6.5683    7-B3u
  50   0.0000       0.241381         6.5683    7-B2u
  51   0.0000       0.276543         7.5251    8-B2u
  52   0.0000       0.276543         7.5251    8-B3u
  53   0.0000       0.276543         7.5251    8-B1u
  54   0.0000       0.295607         8.0439    4-Au
  55   0.0000       0.295607         8.0439    5-Au
  56   0.0000       0.346861         9.4386    6-Au
  57   0.0000       0.352013         9.5788   10-Ag
  58   0.0000       0.401758        10.9324    9-B2u
  59   0.0000       0.401758        10.9324    9-B3u
  60   0.0000       0.401758        10.9324    9-B1u
  61   0.0000       0.407541        11.0898    7-B1g
  62   0.0000       0.407541        11.0898    7-B3g
  63   0.0000       0.407541        11.0898    7-B2g
  64   0.0000       0.409055        11.1309    8-B2g
  65   0.0000       0.409055        11.1310    8-B3g
  66   0.0000       0.409055        11.1310    8-B1g
  67   0.0000       0.424839        11.5605   10-B3u
  68   0.0000       0.424839        11.5605   10-B2u
  69   0.0000       0.424839        11.5605   10-B1u
  70   0.0000       0.441457        12.0127    9-B2g
  71   0.0000       0.441458        12.0127    9-B3g
  72   0.0000       0.441458        12.0127    9-B1g
  73   0.0000       0.484930        13.1956    7-Au
  74   0.0000       0.484930        13.1956    8-Au
  75   0.0000       0.549899        14.9635   11-Ag
  76   0.0000       0.549899        14.9635   12-Ag
  77   0.0000       0.620316        16.8796   10-B2g
  78   0.0000       0.620317        16.8797   10-B3g
  79   0.0000       0.620317        16.8797   10-B1g
  80   0.0000       0.625333        17.0162    9-Au
  81   0.0000       0.635482        17.2924   11-B2u
  82   0.0000       0.635482        17.2924   11-B1u
  83   0.0000       0.635482        17.2924   11-B3u
  84   0.0000       0.717874        19.5343   13-Ag
  85   0.0000       0.804890        21.9022   10-Au
  86   0.0000       0.816607        22.2210   11-B2g
  87   0.0000       0.816612        22.2211   11-B3g
  88   0.0000       0.816612        22.2211   11-B1g
  89   0.0000       0.864865        23.5342   14-Ag
  90   0.0000       0.875163        23.8144   12-B2u
  91   0.0000       0.875163        23.8144   12-B1u
  92   0.0000       0.875163        23.8144   12-B3u
  93   0.0000       0.889784        24.2123   15-Ag
  94   0.0000       0.889784        24.2123   16-Ag
  95   0.0000       0.963454        26.2169   13-B1u
  96   0.0000       0.963454        26.2169   13-B3u
  97   0.0000       0.963454        26.2169   13-B2u
  98   0.0000       0.979593        26.6561   11-Au
  99   0.0000       0.984097        26.7787   14-B1u
 100   0.0000       0.984097        26.7787   14-B2u
 101   0.0000       0.984097        26.7787   14-B3u
 102   0.0000       1.103585        30.0301   12-B2g
 103   0.0000       1.103585        30.0301   12-B3g
 104   0.0000       1.103585        30.0301   12-B1g
 105   0.0000       1.130468        30.7616   15-B3u
 106   0.0000       1.130468        30.7616   15-B2u
 107   0.0000       1.130468        30.7616   15-B1u
 108   0.0000       1.159960        31.5641   13-B3g
 109   0.0000       1.159960        31.5641   13-B2g
 110   0.0000       1.159960        31.5641   13-B1g
 111   0.0000       1.196753        32.5653   16-B2u
 112   0.0000       1.196753        32.5653   16-B3u
 113   0.0000       1.196753        32.5653   16-B1u
 114   0.0000       1.219442        33.1827   12-Au
 115   0.0000       1.219442        33.1827   13-Au
 116   0.0000       1.230929        33.4953   14-B2g
 117   0.0000       1.230931        33.4953   14-B3g
 118   0.0000       1.230931        33.4953   14-B1g
 119   0.0000       1.302600        35.4455   15-B2g
 120   0.0000       1.302600        35.4455   15-B3g
 121   0.0000       1.302600        35.4455   15-B1g
 122   0.0000       1.408355        38.3233   16-B2g
 123   0.0000       1.408355        38.3233   16-B3g
 124   0.0000       1.408356        38.3233   16-B1g
 125   0.0000       1.416241        38.5379   17-Ag
 126   0.0000       1.536085        41.7990   14-Au
 127   0.0000       1.536085        41.7990   15-Au
 128   0.0000       1.574817        42.8530   16-Au
 129   0.0000       1.590435        43.2779   18-Ag
 130   0.0000       1.590435        43.2779   19-Ag
 131   0.0000       1.627325        44.2818   17-B2u
 132   0.0000       1.627325        44.2818   17-B3u
 133   0.0000       1.627325        44.2818   17-B1u
 134   0.0000       1.718446        46.7613   20-Ag
 135   0.0000       1.719351        46.7859   18-B1u
 136   0.0000       1.719351        46.7859   18-B2u
 137   0.0000       1.719351        46.7859   18-B3u
 138   0.0000       1.721263        46.8380   21-Ag
 139   0.0000       1.721263        46.8380   22-Ag
 140   0.0000       1.742910        47.4270   19-B3u
 141   0.0000       1.742910        47.4270   19-B2u
 142   0.0000       1.742911        47.4270   19-B1u
 143   0.0000       1.837620        50.0042   17-B2g
 144   0.0000       1.837624        50.0043   17-B3g
 145   0.0000       1.837625        50.0043   17-B1g
 146   0.0000       1.970839        53.6293   23-Ag
 147   0.0000       2.052704        55.8569   20-B3u
 148   0.0000       2.052704        55.8569   20-B2u
 149   0.0000       2.052704        55.8569   20-B1u
 150   0.0000       2.135449        58.1085   18-B2g
 151   0.0000       2.135449        58.1085   18-B3g
 152   0.0000       2.135449        58.1085   18-B1g
 153   0.0000       2.199343        59.8472   21-B3u
 154   0.0000       2.199343        59.8472   21-B2u
 155   0.0000       2.199343        59.8472   21-B1u
 156   0.0000       2.242237        61.0144   17-Au
 157   0.0000       2.269344        61.7520   22-B1u
 158   0.0000       2.269344        61.7520   22-B3u
 159   0.0000       2.269344        61.7520   22-B2u
 160   0.0000       2.285055        62.1795   19-B2g
 161   0.0000       2.285055        62.1795   19-B3g
 162   0.0000       2.285055        62.1795   19-B1g
 163   0.0000       2.390153        65.0394   24-Ag
 164   0.0000       2.398067        65.2547   25-Ag
 165   0.0000       2.398067        65.2547   26-Ag
 166   0.0000       2.457152        66.8625   20-B2g
 167   0.0000       2.457152        66.8625   20-B1g
 168   0.0000       2.457152        66.8625   20-B3g
 169   0.0000       2.485123        67.6236   18-Au
 170   0.0000       2.485123        67.6236   19-Au
 171   0.0000       2.552344        69.4528   21-B2g
 172   0.0000       2.552344        69.4528   21-B3g
 173   0.0000       2.552344        69.4528   21-B1g
 174   0.0000       2.556992        69.5793   23-B3u
 175   0.0000       2.556992        69.5793   23-B2u
 176   0.0000       2.556992        69.5793   23-B1u
 177   0.0000       2.557545        69.5943   27-Ag
 178   0.0000       2.563567        69.7582   22-B2g
 179   0.0000       2.563568        69.7582   22-B3g
 180   0.0000       2.563568        69.7582   22-B1g
 181   0.0000       2.627041        71.4854   24-B1u
 182   0.0000       2.627041        71.4854   24-B2u
 183   0.0000       2.627041        71.4854   24-B3u
 184   0.0000       2.649809        72.1050   28-Ag
 185   0.0000       2.649809        72.1050   29-Ag
 186   0.0000       2.741398        74.5972   20-Au
 187   0.0000       2.752827        74.9082   25-B3u
 188   0.0000       2.752827        74.9082   25-B2u
 189   0.0000       2.752827        74.9082   25-B1u
 190   0.0000       2.873086        78.1807   26-B2u
 191   0.0000       2.873086        78.1807   26-B3u
 192   0.0000       2.873086        78.1807   26-B1u
 193   0.0000       2.908506        79.1445   27-B2u
 194   0.0000       2.908506        79.1445   27-B3u
 195   0.0000       2.908506        79.1445   27-B1u
 196   0.0000       2.923213        79.5447   23-B2g
 197   0.0000       2.923213        79.5447   23-B3g
 198   0.0000       2.923213        79.5447   23-B1g
 199   0.0000       3.053247        83.0831   21-Au
 200   0.0000       3.053247        83.0831   22-Au
 201   0.0000       3.080390        83.8217   24-B1g
 202   0.0000       3.080390        83.8217   24-B2g
 203   0.0000       3.080390        83.8217   24-B3g
 204   0.0000       3.114372        84.7464   25-B2g
 205   0.0000       3.114373        84.7464   25-B3g
 206   0.0000       3.114373        84.7464   25-B1g
 207   0.0000       3.208039        87.2952   30-Ag
 208   0.0000       3.229451        87.8778   23-Au
 209   0.0000       3.229451        87.8778   24-Au
 210   0.0000       3.275513        89.1312   28-B3u
 211   0.0000       3.275513        89.1312   28-B2u
 212   0.0000       3.275513        89.1312   28-B1u
 213   0.0000       3.280770        89.2743   26-B2g
 214   0.0000       3.280771        89.2743   26-B3g
 215   0.0000       3.280771        89.2743   26-B1g
 216   0.0000       3.334253        90.7296   29-B1u
 217   0.0000       3.334253        90.7296   29-B3u
 218   0.0000       3.334253        90.7296   29-B2u
 219   0.0000       3.374057        91.8128   25-Au
 220   0.0000       3.447524        93.8119   31-Ag
 221   0.0000       3.447524        93.8119   32-Ag
 222   0.0000       3.558168        96.8227   27-B2g
 223   0.0000       3.558168        96.8227   27-B3g
 224   0.0000       3.558169        96.8227   27-B1g
 225   0.0000       3.573773        97.2473   28-B1g
 226   0.0000       3.573773        97.2473   28-B3g
 227   0.0000       3.573773        97.2473   28-B2g
 228   0.0000       3.620336        98.5143   30-B3u
 229   0.0000       3.620336        98.5143   30-B2u
 230   0.0000       3.620336        98.5143   30-B1u
 231   0.0000       3.723925       101.3331   33-Ag
 232   0.0000       3.800393       103.4140   31-B3u
 233   0.0000       3.800394       103.4140   31-B2u
 234   0.0000       3.800394       103.4140   31-B1u
 235   0.0000       3.866026       105.1999   29-B2g
 236   0.0000       3.866026       105.1999   29-B3g
 237   0.0000       3.866026       105.1999   29-B1g
 238   0.0000       3.889860       105.8485   32-B3u
 239   0.0000       3.889860       105.8485   32-B2u
 240   0.0000       3.889860       105.8485   32-B1u
 241   0.0000       3.899446       106.1093   30-B2g
 242   0.0000       3.899447       106.1093   30-B3g
 243   0.0000       3.899447       106.1093   30-B1g
 244   0.0000       3.902388       106.1894   26-Au
 245   0.0000       3.927195       106.8644   33-B3u
 246   0.0000       3.927195       106.8644   33-B2u
 247   0.0000       3.927195       106.8644   33-B1u
 248   0.0000       4.004053       108.9558   34-Ag
 249   0.0000       4.004053       108.9558   35-Ag
 250   0.0000       4.013952       109.2252   36-Ag
 251   0.0000       4.015908       109.2784   27-Au
 252   0.0000       4.015908       109.2784   28-Au
 253   0.0000       4.117859       112.0526   31-B2g
 254   0.0000       4.117859       112.0526   31-B3g
 255   0.0000       4.117859       112.0526   31-B1g
 256   0.0000       4.153663       113.0269   34-B2u
 257   0.0000       4.153663       113.0269   34-B1u
 258   0.0000       4.153663       113.0269   34-B3u
 259   0.0000       4.162810       113.2758   32-B2g
 260   0.0000       4.162810       113.2758   32-B3g
 261   0.0000       4.162810       113.2758   32-B1g
 262   0.0000       4.165460       113.3479   29-Au
 263   0.0000       4.275710       116.3480   35-B2u
 264   0.0000       4.275710       116.3480   35-B1u
 265   0.0000       4.275710       116.3480   35-B3u
 266   0.0000       4.509733       122.7161   30-Au
 267   0.0000       4.538353       123.4949   33-B2g
 268   0.0000       4.538353       123.4949   33-B3g
 269   0.0000       4.538353       123.4949   33-B1g
 270   0.0000       4.752626       129.3255   31-Au
 271   0.0000       4.752626       129.3255   32-Au
 272   0.0000       4.797260       130.5401   36-B3u
 273   0.0000       4.797260       130.5401   36-B2u
 274   0.0000       4.797260       130.5401   36-B1u
 275   0.0000       4.805312       130.7592   34-B2g
 276   0.0000       4.805312       130.7592   34-B3g
 277   0.0000       4.805312       130.7592   34-B1g
 278   0.0000       4.971867       135.2914   35-B2g
 279   0.0000       4.971867       135.2914   35-B3g
 280   0.0000       4.971867       135.2914   35-B1g
 281   0.0000       5.091742       138.5533   33-Au
 282   0.0000       5.091742       138.5533   34-Au
 283   0.0000       5.199765       141.4928   36-B2g
 284   0.0000       5.199765       141.4928   36-B3g
 285   0.0000       5.199767       141.4929   36-B1g
 286   0.0000       5.497618       149.5978   35-Au
 287   0.0000       5.971288       162.4870   36-Au
 288   0.0000      22.139314       602.4414   37-Ag
 289   0.0000      22.474412       611.5598   37-B3u
 290   0.0000      22.474412       611.5598   37-B1u
 291   0.0000      22.474412       611.5598   37-B2u
 292   0.0000      22.877382       622.5252   37-B2g
 293   0.0000      22.877383       622.5252   37-B3g
 294   0.0000      22.877383       622.5252   37-B1g
 295   0.0000      23.269268       633.1890   37-Au

                    ********************************
                    * MULLIKEN POPULATION ANALYSIS *
                    ********************************

-----------------------
MULLIKEN ATOMIC CHARGES
-----------------------
   0 H :    0.089130
   1 C :   -0.089130
   2 H :    0.089130
   3 C :   -0.089130
   4 H :    0.089130
   5 C :   -0.089130
   6 H :    0.089130
   7 C :   -0.089130
   8 H :    0.089130
   9 C :   -0.089130
  10 H :    0.089130
  11 C :   -0.089130
  12 H :    0.089130
  13 C :   -0.089130
  14 H :    0.089130
  15 C :   -0.089130
Sum of atomic charges:    0.0000000

--------------------------------
MULLIKEN REDUCED ORBITAL CHARGES
--------------------------------
  0 H s       :     0.889040  s :     0.889040
      pz      :     0.007277  p :     0.021830
      px      :     0.007277
      py      :     0.007277
  1 C s       :     3.273279  s :     3.273279
      pz      :     0.906279  p :     2.718836
      px      :     0.906279
      py      :     0.906279
      dz2     :     0.014244  d :     0.087872
      dxz     :     0.019795
      dyz     :     0.019795
      dx2y2   :     0.014244
      dxy     :     0.019795
      f0      :     0.001751  f :     0.009143
      f+1     :     0.001350
      f-1     :     0.001350
      f+2     :     0.001110
      f-2     :     0.000562
      f+3     :     0.001510
      f-3     :     0.001510
  2 H s       :     0.889040  s :     0.889040
      pz      :     0.007277  p :     0.021830
      px      :     0.007277
      py      :     0.007277
  3 C s       :     3.273279  s :     3.273279
      pz      :     0.906279  p :     2.718836
      px      :     0.906279
      py      :     0.906279
      dz2     :     0.014244  d :     0.087872
      dxz     :     0.019795
      dyz     :     0.019795
      dx2y2   :     0.014244
      dxy     :     0.019795
      f0      :     0.001751  f :     0.009143
      f+1     :     0.001350
      f-1     :     0.001350
      f+2     :     0.001110
      f-2     :     0.000562
      f+3     :     0.001510
      f-3     :     0.001510
  4 H s       :     0.889040  s :     0.889040
      pz      :     0.007277  p :     0.021830
      px      :     0.007277
      py      :     0.007277
  5 C s       :     3.273279  s :     3.273279
      pz      :     0.906279  p :     2.718836
      px      :     0.906279
      py      :     0.906279
      dz2     :     0.014244  d :     0.087872
      dxz     :     0.019795
      dyz     :     0.019795
      dx2y2   :     0.014244
      dxy     :     0.019795
      f0      :     0.001751  f :     0.009143
      f+1     :     0.001350
      f-1     :     0.001350
      f+2     :     0.001110
      f-2     :     0.000562
      f+3     :     0.001510
      f-3     :     0.001510
  6 H s       :     0.889040  s :     0.889040
      pz      :     0.007277  p :     0.021830
      px      :     0.007277
      py      :     0.007277
  7 C s       :     3.273279  s :     3.273279
      pz      :     0.906279  p :     2.718836
      px      :     0.906279
      py      :     0.906279
      dz2     :     0.014244  d :     0.087872
      dxz     :     0.019795
      dyz     :     0.019795
      dx2y2   :     0.014244
      dxy     :     0.019795
      f0      :     0.001751  f :     0.009143
      f+1     :     0.001350
      f-1     :     0.001350
      f+2     :     0.001110
      f-2     :     0.000562
      f+3     :     0.001510
      f-3     :     0.001510
  8 H s       :     0.889040  s :     0.889040
      pz      :     0.007277  p :     0.021830
      px      :     0.007277
      py      :     0.007277
  9 C s       :     3.273279  s :     3.273279
      pz      :     0.906279  p :     2.718836
      px      :     0.906279
      py      :     0.906279
      dz2     :     0.014244  d :     0.087872
      dxz     :     0.019795
      dyz     :     0.019795
      dx2y2   :     0.014244
      dxy     :     0.019795
      f0      :     0.001751  f :     0.009143
      f+1     :     0.001350
      f-1     :     0.001350
      f+2     :     0.001110
      f-2     :     0.000562
      f+3     :     0.001510
      f-3     :     0.001510
 10 H s       :     0.889040  s :     0.889040
      pz      :     0.007277  p :     0.021830
      px      :     0.007277
      py      :     0.007277
 11 C s       :     3.273279  s :     3.273279
      pz      :     0.906279  p :     2.718836
      px      :     0.906279
      py      :     0.906279
      dz2     :     0.014244  d :     0.087872
      dxz     :     0.019795
      dyz     :     0.019795
      dx2y2   :     0.014244
      dxy     :     0.019795
      f0      :     0.001751  f :     0.009143
      f+1     :     0.001350
      f-1     :     0.001350
      f+2     :     0.001110
      f-2     :     0.000562
      f+3     :     0.001510
      f-3     :     0.001510
 12 H s       :     0.889040  s :     0.889040
      pz      :     0.007277  p :     0.021830
      px      :     0.007277
      py      :     0.007277
 13 C s       :     3.273279  s :     3.273279
      pz      :     0.906279  p :     2.718836
      px      :     0.906279
      py      :     0.906279
      dz2     :     0.014244  d :     0.087872
      dxz     :     0.019795
      dyz     :     0.019795
      dx2y2   :     0.014244
      dxy     :     0.019795
      f0      :     0.001751  f :     0.009143
      f+1     :     0.001350
      f-1     :     0.001350
      f+2     :     0.001110
      f-2     :     0.000562
      f+3     :     0.001510
      f-3     :     0.001510
 14 H s       :     0.889040  s :     0.889040
      pz      :     0.007277  p :     0.021830
      px      :     0.007277
      py      :     0.007277
 15 C s       :     3.273279  s :     3.273279
      pz      :     0.906279  p :     2.718836
      px      :     0.906279
      py      :     0.906279
      dz2     :     0.014244  d :     0.087872
      dxz     :     0.019795
      dyz     :     0.019795
      dx2y2   :     0.014244
      dxy     :     0.019795
      f0      :     0.001751  f :     0.009143
      f+1     :     0.001350
      f-1     :     0.001350
      f+2     :     0.001110
      f-2     :     0.000562
      f+3     :     0.001510
      f-3     :     0.001510


                     *******************************
                     * LOEWDIN POPULATION ANALYSIS *
                     *******************************

----------------------
LOEWDIN ATOMIC CHARGES
----------------------
   0 H :    0.121417
   1 C :   -0.121417
   2 H :    0.121417
   3 C :   -0.121417
   4 H :    0.121417
   5 C :   -0.121417
   6 H :    0.121417
   7 C :   -0.121417
   8 H :    0.121417
   9 C :   -0.121417
  10 H :    0.121417
  11 C :   -0.121417
  12 H :    0.121417
  13 C :   -0.121417
  14 H :    0.121417
  15 C :   -0.121417

-------------------------------
LOEWDIN REDUCED ORBITAL CHARGES
-------------------------------
  0 H s       :     0.818287  s :     0.818287
      pz      :     0.020099  p :     0.060296
      px      :     0.020099
      py      :     0.020099
  1 C s       :     2.755518  s :     2.755518
      pz      :     0.958345  p :     2.875034
      px      :     0.958345
      py      :     0.958345
      dz2     :     0.081250  d :     0.435379
      dxz     :     0.090959
      dyz     :     0.090959
      dx2y2   :     0.081250
      dxy     :     0.090959
      f0      :     0.011198  f :     0.055487
      f+1     :     0.008218
      f-1     :     0.008218
      f+2     :     0.006431
      f-2     :     0.002603
      f+3     :     0.009410
      f-3     :     0.009410
  2 H s       :     0.818287  s :     0.818287
      pz      :     0.020099  p :     0.060296
      px      :     0.020099
      py      :     0.020099
  3 C s       :     2.755518  s :     2.755518
      pz      :     0.958345  p :     2.875034
      px      :     0.958345
      py      :     0.958345
      dz2     :     0.081250  d :     0.435379
      dxz     :     0.090959
      dyz     :     0.090959
      dx2y2   :     0.081250
      dxy     :     0.090959
      f0      :     0.011198  f :     0.055487
      f+1     :     0.008218
      f-1     :     0.008218
      f+2     :     0.006431
      f-2     :     0.002603
      f+3     :     0.009410
      f-3     :     0.009410
  4 H s       :     0.818287  s :     0.818287
      pz      :     0.020099  p :     0.060296
      px      :     0.020099
      py      :     0.020099
  5 C s       :     2.755518  s :     2.755518
      pz      :     0.958345  p :     2.875034
      px      :     0.958345
      py      :     0.958345
      dz2     :     0.081250  d :     0.435379
      dxz     :     0.090959
      dyz     :     0.090959
      dx2y2   :     0.081250
      dxy     :     0.090959
      f0      :     0.011198  f :     0.055487
      f+1     :     0.008218
      f-1     :     0.008218
      f+2     :     0.006431
      f-2     :     0.002603
      f+3     :     0.009410
      f-3     :     0.009410
  6 H s       :     0.818287  s :     0.818287
      pz      :     0.020099  p :     0.060296
      px      :     0.020099
      py      :     0.020099
  7 C s       :     2.755518  s :     2.755518
      pz      :     0.958345  p :     2.875034
      px      :     0.958345
      py      :     0.958345
      dz2     :     0.081250  d :     0.435379
      dxz     :     0.090959
      dyz     :     0.090959
      dx2y2   :     0.081250
      dxy     :     0.090959
      f0      :     0.011198  f :     0.055487
      f+1     :     0.008218
      f-1     :     0.008218
      f+2     :     0.006431
      f-2     :     0.002603
      f+3     :     0.009410
      f-3     :     0.009410
  8 H s       :     0.818287  s :     0.818287
      pz      :     0.020099  p :     0.060296
      px      :     0.020099
      py      :     0.020099
  9 C s       :     2.755518  s :     2.755518
      pz      :     0.958345  p :     2.875034
      px      :     0.958345
      py      :     0.958345
      dz2     :     0.081250  d :     0.435379
      dxz     :     0.090959
      dyz     :     0.090959
      dx2y2   :     0.081250
      dxy     :     0.090959
      f0      :     0.011198  f :     0.055487
      f+1     :     0.008218
      f-1     :     0.008218
      f+2     :     0.006431
      f-2     :     0.002603
      f+3     :     0.009410
      f-3     :     0.009410
 10 H s       :     0.818287  s :     0.818287
      pz      :     0.020099  p :     0.060296
      px      :     0.020099
      py      :     0.020099
 11 C s       :     2.755518  s :     2.755518
      pz      :     0.958345  p :     2.875034
      px      :     0.958345
      py      :     0.958345
      dz2     :     0.081250  d :     0.435379
      dxz     :     0.090959
      dyz     :     0.090959
      dx2y2   :     0.081250
      dxy     :     0.090959
      f0      :     0.011198  f :     0.055487
      f+1     :     0.008218
      f-1     :     0.008218
      f+2     :     0.006431
      f-2     :     0.002603
      f+3     :     0.009410
      f-3     :     0.009410
 12 H s       :     0.818287  s :     0.818287
      pz      :     0.020099  p :     0.060296
      px      :     0.020099
      py      :     0.020099
 13 C s       :     2.755518  s :     2.755518
      pz      :     0.958345  p :     2.875034
      px      :     0.958345
      py      :     0.958345
      dz2     :     0.081250  d :     0.435379
      dxz     :     0.090959
      dyz     :     0.090959
      dx2y2   :     0.081250
      dxy     :     0.090959
      f0      :     0.011198  f :     0.055487
      f+1     :     0.008218
      f-1     :     0.008218
      f+2     :     0.006431
      f-2     :     0.002603
      f+3     :     0.009410
      f-3     :     0.009410
 14 H s       :     0.818287  s :     0.818287
      pz      :     0.020099  p :     0.060296
      px      :     0.020099
      py      :     0.020099
 15 C s       :     2.755518  s :     2.755518
      pz      :     0.958345  p :     2.875034
      px      :     0.958345
      py      :     0.958345
      dz2     :     0.081250  d :     0.435379
      dxz     :     0.090959
      dyz     :     0.090959
      dx2y2   :     0.081250
      dxy     :     0.090959
      f0      :     0.011198  f :     0.055487
      f+1     :     0.008218
      f-1     :     0.008218
      f+2     :     0.006431
      f-2     :     0.002603
      f+3     :     0.009410
      f-3     :     0.009410


                      *****************************
                      * MAYER POPULATION ANALYSIS *
                      *****************************

  NA   - Mulliken gross atomic population
  ZA   - Total nuclear charge
  QA   - Mulliken gross atomic charge
  VA   - Mayer's total valence
  BVA  - Mayer's bonded valence
  FA   - Mayer's free valence

  ATOM       NA         ZA         QA         VA         BVA        FA
  0 H      0.9109     1.0000     0.0891     0.9507     0.9507    -0.0000
  1 C      6.0891     6.0000    -0.0891     3.8601     3.8601     0.0000
  2 H      0.9109     1.0000     0.0891     0.9507     0.9507    -0.0000
  3 C      6.0891     6.0000    -0.0891     3.8601     3.8601    -0.0000
  4 H      0.9109     1.0000     0.0891     0.9507     0.9507     0.0000
  5 C      6.0891     6.0000    -0.0891     3.8601     3.8601     0.0000
  6 H      0.9109     1.0000     0.0891     0.9507     0.9507     0.0000
  7 C      6.0891     6.0000    -0.0891     3.8601     3.8601     0.0000
  8 H      0.9109     1.0000     0.0891     0.9507     0.9507     0.0000
  9 C      6.0891     6.0000    -0.0891     3.8601     3.8601     0.0000
 10 H      0.9109     1.0000     0.0891     0.9507     0.9507     0.0000
 11 C      6.0891     6.0000    -0.0891     3.8601     3.8601     0.0000
 12 H      0.9109     1.0000     0.0891     0.9507     0.9507    -0.0000
 13 C      6.0891     6.0000    -0.0891     3.8601     3.8601    -0.0000
 14 H      0.9109     1.0000     0.0891     0.9507     0.9507     0.0000
 15 C      6.0891     6.0000    -0.0891     3.8601     3.8601     0.0000

  Mayer bond orders larger than 0.1
B(  0-H ,  1-C ) :   0.9471 B(  1-C ,  3-C ) :   0.9195 B(  1-C ,  5-C ) :   0.9195 
B(  1-C ,  7-C ) :   0.9195 B(  2-H ,  3-C ) :   0.9471 B(  3-C ,  9-C ) :   0.9195 
B(  3-C , 11-C ) :   0.9195 B(  4-H ,  5-C ) :   0.9471 B(  5-C ,  9-C ) :   0.9195 
B(  5-C , 13-C ) :   0.9195 B(  6-H ,  7-C ) :   0.9471 B(  7-C , 11-C ) :   0.9195 
B(  7-C , 13-C ) :   0.9195 B(  8-H ,  9-C ) :   0.9471 B(  9-C , 15-C ) :   0.9195 
B( 10-H , 11-C ) :   0.9471 B( 11-C , 15-C ) :   0.9195 B( 12-H , 13-C ) :   0.9471 
B( 13-C , 15-C ) :   0.9195 B( 14-H , 15-C ) :   0.9471 

-------
TIMINGS
-------

Total SCF time: 0 days 0 hours 1 min 27 sec 

Total time                  ....      87.225 sec
Sum of individual times     ....      87.009 sec  ( 99.8%)

Fock matrix formation       ....      86.063 sec  ( 98.7%)
  XC integration            ....       2.348 sec  (  2.7% of F)
    Basis function eval.    ....       0.416 sec  ( 17.7% of XC)
    Density eval.           ....       0.448 sec  ( 19.1% of XC)
    XC-Functional eval.     ....       0.039 sec  (  1.7% of XC)
    XC-Potential eval.      ....       1.324 sec  ( 56.4% of XC)
Diagonalization             ....       0.063 sec  (  0.1%)
Density matrix formation    ....       0.007 sec  (  0.0%)
Population analysis         ....       0.034 sec  (  0.0%)
Initial guess               ....       0.306 sec  (  0.4%)
Orbital Transformation      ....       0.000 sec  (  0.0%)
Orbital Orthonormalization  ....       0.000 sec  (  0.0%)
DIIS solution               ....       0.031 sec  (  0.0%)
SOSCF solution              ....       0.052 sec  (  0.1%)
Grid generation             ....       0.454 sec  (  0.5%)

-------------------------   --------------------
FINAL SINGLE POINT ENERGY      -309.356505487151
-------------------------   --------------------



           ************************************************************
           *        Program running with 4 parallel MPI-processes     *
           *              working on a common directory               *
           ************************************************************
------------------------------------------------------------------------------
                         ORCA SCF GRADIENT CALCULATION
------------------------------------------------------------------------------

Gradient of the Kohn-Sham DFT energy:
Kohn-Sham wavefunction type      ... RKS
Hartree-Fock exchange scaling    ...    0.200
Number of operators              ...    1
Number of atoms                  ...   16
Basis set dimensions             ...  296
Integral neglect threshold       ... 2.5e-11
Integral primitive cutoff        ... 2.5e-12

Nuclear repulsion gradient       ... done
One Electron Gradient            
  ECP gradient                   ... done
Pre-screening matrix             ... done
Starting the two electron gradient:
Two electron gradient done
Exchange-correlation gradient    ... done

------------------
CARTESIAN GRADIENT
------------------

   1   H   :   -0.004406429    0.004406428    0.004406429
   2   C   :    0.000656963   -0.000656958   -0.000656962
   3   H   :   -0.004406431   -0.004406431    0.004406429
   4   C   :    0.000656953    0.000656959   -0.000656952
   5   H   :    0.004406431    0.004406431    0.004406431
   6   C   :   -0.000656960   -0.000656952   -0.000656954
   7   H   :   -0.004406432    0.004406433   -0.004406431
   8   C   :    0.000656954   -0.000656954    0.000656961
   9   H   :    0.004406430   -0.004406431    0.004406431
  10   C   :   -0.000656953    0.000656955   -0.000656951
  11   H   :   -0.004406431   -0.004406431   -0.004406432
  12   C   :    0.000656953    0.000656951    0.000656954
  13   H   :    0.004406431    0.004406431   -0.004406431
  14   C   :   -0.000656957   -0.000656951    0.000656959
  15   H   :    0.004406430   -0.004406431   -0.004406431
  16   C   :   -0.000656952    0.000656952    0.000656950

Difference to translation invariance:
           :   -0.0000000000    0.0000000000    0.0000000000

Norm of the cartesian gradient     ...    0.0218256110
RMS gradient                       ...    0.0031502556
MAX gradient                       ...    0.0044064327

-------
TIMINGS
-------

Total SCF gradient time            ...       46.937 sec

One electron gradient       ....       0.088 sec  (  0.2%)
Prescreening matrices       ....       0.186 sec  (  0.4%)
Two electron gradient       ....      44.256 sec  ( 94.3%)
XC gradient                 ....       2.208 sec  (  4.7%)
------------------------------------------------------------------------------
                         ORCA GEOMETRY RELAXATION STEP
------------------------------------------------------------------------------

Reading the OPT-File                    .... done
Getting information on internals        .... done
Copying old internal coords+grads       .... done
Making the new internal coordinates     .... (new redundants).... done
Validating the new internal coordinates .... (new redundants).... done
Calculating the B-matrix                .... done
Calculating the G,G- and P matrices     .... done
Transforming gradient to internals      .... done
Projecting the internal gradient        .... done
Number of atoms                         ....  16
Number of internal coordinates          .... 176
Current Energy                          ....  -309.356505487 Eh
Current gradient norm                   ....     0.021825611 Eh/bohr
Maximum allowed component of the step   ....  0.300
Current trust radius                    ....  0.300
Evaluating the initial hessian          ....  (Almloef) done
Projecting the Hessian                  .... done
Forming the augmented Hessian           .... done
Diagonalizing the augmented Hessian     .... done
Last element of RFO vector              ....  0.997262627
Lowest eigenvalues of augmented Hessian:
 -0.001866193  0.037711219  0.037711219  0.042678454  0.042678454
Length of the computed step             ....  0.074143836
The final length of the internal step   ....  0.074143836
Converting the step to cartesian space:
 Initial RMS(Int)=    0.0055888019
Transforming coordinates:
 Iter   0:  RMS(Cart)=    0.0137505314 RMS(Int)=    0.0055888019
 Iter   1:  RMS(Cart)=    0.0000000014 RMS(Int)=    0.0000000007
done
Storing new coordinates                 .... done

                                .--------------------.
          ----------------------|Geometry convergence|-------------------------
          Item                value                   Tolerance       Converged
          ---------------------------------------------------------------------
          RMS gradient        0.0018990158            0.0000300000      NO
          MAX gradient        0.0076321638            0.0001000000      NO
          RMS step            0.0055888019            0.0006000000      NO
[...]
 258   0.0000       4.158251       113.1518   34-B3u
 259   0.0000       4.179915       113.7413   32-B1g
 260   0.0000       4.179916       113.7413   32-B3g
 261   0.0000       4.179916       113.7413   32-B2g
 262   0.0000       4.183745       113.8455   29-Au
 263   0.0000       4.305416       117.1563   35-B1u
 264   0.0000       4.305416       117.1563   35-B2u
 265   0.0000       4.305417       117.1563   35-B3u
 266   0.0000       4.531270       123.3021   30-Au
 267   0.0000       4.560910       124.1087   33-B1g
 268   0.0000       4.560910       124.1087   33-B3g
 269   0.0000       4.560910       124.1087   33-B2g
 270   0.0000       4.772060       129.8543   31-Au
 271   0.0000       4.772060       129.8543   32-Au
 272   0.0000       4.807814       130.8273   36-B1u
 273   0.0000       4.807815       130.8273   36-B2u
 274   0.0000       4.807815       130.8273   36-B3u
 275   0.0000       4.846173       131.8711   34-B1g
 276   0.0000       4.846173       131.8711   34-B2g
 277   0.0000       4.846173       131.8711   34-B3g
 278   0.0000       4.986991       135.7029   35-B2g
 279   0.0000       4.986991       135.7029   35-B3g
 280   0.0000       4.986991       135.7029   35-B1g
 281   0.0000       5.109030       139.0238   33-Au
 282   0.0000       5.109030       139.0238   34-Au
 283   0.0000       5.216270       141.9419   36-B1g
 284   0.0000       5.216272       141.9420   36-B2g
 285   0.0000       5.216272       141.9420   36-B3g
 286   0.0000       5.555101       151.1620   35-Au
 287   0.0000       6.007687       163.4775   36-Au
 288   0.0000      22.165482       603.1534   37-Ag
 289   0.0000      22.507537       612.4612   37-B1u
 290   0.0000      22.507537       612.4612   37-B3u
 291   0.0000      22.507537       612.4612   37-B2u
 292   0.0000      22.911011       623.4403   37-B1g
 293   0.0000      22.911011       623.4403   37-B2g
 294   0.0000      22.911011       623.4403   37-B3g
 295   0.0000      23.281054       633.5097   37-Au

                    ********************************
                    * MULLIKEN POPULATION ANALYSIS *
                    ********************************

-----------------------
MULLIKEN ATOMIC CHARGES
-----------------------
   0 H :    0.087516
   1 C :   -0.087516
   2 H :    0.087516
   3 C :   -0.087516
   4 H :    0.087516
   5 C :   -0.087516
   6 H :    0.087516
   7 C :   -0.087516
   8 H :    0.087516
   9 C :   -0.087516
  10 H :    0.087516
  11 C :   -0.087516
  12 H :    0.087516
  13 C :   -0.087516
  14 H :    0.087516
  15 C :   -0.087516
Sum of atomic charges:   -0.0000000

--------------------------------
MULLIKEN REDUCED ORBITAL CHARGES
--------------------------------
  0 H s       :     0.890267  s :     0.890267
      pz      :     0.007406  p :     0.022217
      px      :     0.007406
      py      :     0.007406
  1 C s       :     3.272797  s :     3.272797
      pz      :     0.905639  p :     2.716917
      px      :     0.905639
      py      :     0.905639
      dz2     :     0.013993  d :     0.088454
      dxz     :     0.020156
      dyz     :     0.020156
      dx2y2   :     0.013993
      dxy     :     0.020156
      f0      :     0.001776  f :     0.009348
      f+1     :     0.001385
      f-1     :     0.001385
      f+2     :     0.001150
      f-2     :     0.000571
      f+3     :     0.001541
      f-3     :     0.001541
  2 H s       :     0.890267  s :     0.890267
      pz      :     0.007406  p :     0.022217
      px      :     0.007406
      py      :     0.007406
  3 C s       :     3.272797  s :     3.272797
      pz      :     0.905639  p :     2.716917
      px      :     0.905639
      py      :     0.905639
      dz2     :     0.013993  d :     0.088454
      dxz     :     0.020156
      dyz     :     0.020156
      dx2y2   :     0.013993
      dxy     :     0.020156
      f0      :     0.001776  f :     0.009348
      f+1     :     0.001385
      f-1     :     0.001385
      f+2     :     0.001150
      f-2     :     0.000571
      f+3     :     0.001541
      f-3     :     0.001541
  4 H s       :     0.890267  s :     0.890267
      pz      :     0.007406  p :     0.022217
      px      :     0.007406
      py      :     0.007406
  5 C s       :     3.272797  s :     3.272797
      pz      :     0.905639  p :     2.716917
      px      :     0.905639
      py      :     0.905639
      dz2     :     0.013993  d :     0.088454
      dxz     :     0.020156
      dyz     :     0.020156
      dx2y2   :     0.013993
      dxy     :     0.020156
      f0      :     0.001776  f :     0.009348
      f+1     :     0.001385
      f-1     :     0.001385
      f+2     :     0.001150
      f-2     :     0.000571
      f+3     :     0.001541
      f-3     :     0.001541
  6 H s       :     0.890267  s :     0.890267
      pz      :     0.007406  p :     0.022217
      px      :     0.007406
      py      :     0.007406
  7 C s       :     3.272798  s :     3.272798
      pz      :     0.905639  p :     2.716917
      px      :     0.905639
      py      :     0.905639
      dz2     :     0.013993  d :     0.088454
      dxz     :     0.020156
      dyz     :     0.020156
      dx2y2   :     0.013993
      dxy     :     0.020156
      f0      :     0.001776  f :     0.009348
      f+1     :     0.001385
      f-1     :     0.001385
      f+2     :     0.001150
      f-2     :     0.000571
      f+3     :     0.001541
      f-3     :     0.001541
  8 H s       :     0.890267  s :     0.890267
      pz      :     0.007406  p :     0.022217
      px      :     0.007406
      py      :     0.007406
  9 C s       :     3.272798  s :     3.272798
      pz      :     0.905639  p :     2.716916
      px      :     0.905639
      py      :     0.905639
      dz2     :     0.013993  d :     0.088454
      dxz     :     0.020156
      dyz     :     0.020156
      dx2y2   :     0.013993
      dxy     :     0.020156
      f0      :     0.001776  f :     0.009348
      f+1     :     0.001385
      f-1     :     0.001385
      f+2     :     0.001150
      f-2     :     0.000571
      f+3     :     0.001541
      f-3     :     0.001541
 10 H s       :     0.890267  s :     0.890267
      pz      :     0.007406  p :     0.022217
      px      :     0.007406
      py      :     0.007406
 11 C s       :     3.272798  s :     3.272798
      pz      :     0.905639  p :     2.716917
      px      :     0.905639
      py      :     0.905639
      dz2     :     0.013993  d :     0.088454
      dxz     :     0.020156
      dyz     :     0.020156
      dx2y2   :     0.013993
      dxy     :     0.020156
      f0      :     0.001776  f :     0.009348
      f+1     :     0.001385
      f-1     :     0.001385
      f+2     :     0.001150
      f-2     :     0.000571
      f+3     :     0.001541
      f-3     :     0.001541
 12 H s       :     0.890267  s :     0.890267
      pz      :     0.007406  p :     0.022217
      px      :     0.007406
      py      :     0.007406
 13 C s       :     3.272797  s :     3.272797
      pz      :     0.905639  p :     2.716917
      px      :     0.905639
      py      :     0.905639
      dz2     :     0.013993  d :     0.088454
      dxz     :     0.020156
      dyz     :     0.020156
      dx2y2   :     0.013993
      dxy     :     0.020156
      f0      :     0.001776  f :     0.009348
      f+1     :     0.001385
      f-1     :     0.001385
      f+2     :     0.001150
      f-2     :     0.000571
      f+3     :     0.001541
      f-3     :     0.001541
 14 H s       :     0.890267  s :     0.890267
      pz      :     0.007406  p :     0.022217
      px      :     0.007406
      py      :     0.007406
 15 C s       :     3.272798  s :     3.272798
      pz      :     0.905639  p :     2.716917
      px      :     0.905639
      py      :     0.905639
      dz2     :     0.013993  d :     0.088454
      dxz     :     0.020156
      dyz     :     0.020156
      dx2y2   :     0.013993
      dxy     :     0.020156
      f0      :     0.001776  f :     0.009348
      f+1     :     0.001385
      f-1     :     0.001385
      f+2     :     0.001150
      f-2     :     0.000571
      f+3     :     0.001541
      f-3     :     0.001541


                     *******************************
                     * LOEWDIN POPULATION ANALYSIS *
                     *******************************

----------------------
LOEWDIN ATOMIC CHARGES
----------------------
   0 H :    0.119875
   1 C :   -0.119875
   2 H :    0.119875
   3 C :   -0.119875
   4 H :    0.119875
   5 C :   -0.119875
   6 H :    0.119875
   7 C :   -0.119875
   8 H :    0.119875
   9 C :   -0.119875
  10 H :    0.119875
  11 C :   -0.119875
  12 H :    0.119875
  13 C :   -0.119875
  14 H :    0.119875
  15 C :   -0.119875

-------------------------------
LOEWDIN REDUCED ORBITAL CHARGES
-------------------------------
  0 H s       :     0.818169  s :     0.818169
      pz      :     0.020652  p :     0.061956
      px      :     0.020652
      py      :     0.020652
  1 C s       :     2.747184  s :     2.747184
      pz      :     0.957965  p :     2.873895
      px      :     0.957965
      py      :     0.957965
      dz2     :     0.081468  d :     0.441708
      dxz     :     0.092924
      dyz     :     0.092924
      dx2y2   :     0.081468
      dxy     :     0.092924
      f0      :     0.011453  f :     0.057088
      f+1     :     0.008474
      f-1     :     0.008474
      f+2     :     0.006687
      f-2     :     0.002670
      f+3     :     0.009665
      f-3     :     0.009665
  2 H s       :     0.818169  s :     0.818169
      pz      :     0.020652  p :     0.061956
      px      :     0.020652
      py      :     0.020652
  3 C s       :     2.747184  s :     2.747184
      pz      :     0.957965  p :     2.873895
      px      :     0.957965
      py      :     0.957965
      dz2     :     0.081468  d :     0.441708
      dxz     :     0.092924
      dyz     :     0.092924
      dx2y2   :     0.081468
      dxy     :     0.092924
      f0      :     0.011453  f :     0.057088
      f+1     :     0.008474
      f-1     :     0.008474
      f+2     :     0.006687
      f-2     :     0.002670
      f+3     :     0.009665
      f-3     :     0.009665
  4 H s       :     0.818169  s :     0.818169
      pz      :     0.020652  p :     0.061956
      px      :     0.020652
      py      :     0.020652
  5 C s       :     2.747184  s :     2.747184
      pz      :     0.957965  p :     2.873895
      px      :     0.957965
      py      :     0.957965
      dz2     :     0.081468  d :     0.441708
      dxz     :     0.092924
      dyz     :     0.092924
      dx2y2   :     0.081468
      dxy     :     0.092924
      f0      :     0.011453  f :     0.057088
      f+1     :     0.008474
      f-1     :     0.008474
      f+2     :     0.006687
      f-2     :     0.002670
      f+3     :     0.009665
      f-3     :     0.009665
  6 H s       :     0.818169  s :     0.818169
      pz      :     0.020652  p :     0.061956
      px      :     0.020652
      py      :     0.020652
  7 C s       :     2.747184  s :     2.747184
      pz      :     0.957965  p :     2.873895
      px      :     0.957965
      py      :     0.957965
      dz2     :     0.081468  d :     0.441708
      dxz     :     0.092924
      dyz     :     0.092924
      dx2y2   :     0.081468
      dxy     :     0.092924
      f0      :     0.011453  f :     0.057088
      f+1     :     0.008474
      f-1     :     0.008474
      f+2     :     0.006687
      f-2     :     0.002670
      f+3     :     0.009665
      f-3     :     0.009665
  8 H s       :     0.818169  s :     0.818169
      pz      :     0.020652  p :     0.061956
      px      :     0.020652
      py      :     0.020652
  9 C s       :     2.747184  s :     2.747184
      pz      :     0.957965  p :     2.873895
      px      :     0.957965
      py      :     0.957965
      dz2     :     0.081468  d :     0.441708
      dxz     :     0.092924
      dyz     :     0.092924
      dx2y2   :     0.081468
      dxy     :     0.092924
      f0      :     0.011453  f :     0.057088
      f+1     :     0.008474
      f-1     :     0.008474
      f+2     :     0.006687
      f-2     :     0.002670
      f+3     :     0.009665
      f-3     :     0.009665
 10 H s       :     0.818169  s :     0.818169
      pz      :     0.020652  p :     0.061956
      px      :     0.020652
      py      :     0.020652
 11 C s       :     2.747184  s :     2.747184
      pz      :     0.957965  p :     2.873895
      px      :     0.957965
      py      :     0.957965
      dz2     :     0.081468  d :     0.441708
      dxz     :     0.092924
      dyz     :     0.092924
      dx2y2   :     0.081468
      dxy     :     0.092924
      f0      :     0.011453  f :     0.057088
      f+1     :     0.008474
      f-1     :     0.008474
      f+2     :     0.006687
      f-2     :     0.002670
      f+3     :     0.009665
      f-3     :     0.009665
 12 H s       :     0.818169  s :     0.818169
      pz      :     0.020652  p :     0.061956
      px      :     0.020652
      py      :     0.020652
 13 C s       :     2.747184  s :     2.747184
      pz      :     0.957965  p :     2.873895
      px      :     0.957965
      py      :     0.957965
      dz2     :     0.081468  d :     0.441708
      dxz     :     0.092924
      dyz     :     0.092924
      dx2y2   :     0.081468
      dxy     :     0.092924
      f0      :     0.011453  f :     0.057088
      f+1     :     0.008474
      f-1     :     0.008474
      f+2     :     0.006687
      f-2     :     0.002670
      f+3     :     0.009665
      f-3     :     0.009665
 14 H s       :     0.818169  s :     0.818169
      pz      :     0.020652  p :     0.061956
      px      :     0.020652
      py      :     0.020652
 15 C s       :     2.747184  s :     2.747184
      pz      :     0.957965  p :     2.873895
      px      :     0.957965
      py      :     0.957965
      dz2     :     0.081468  d :     0.441708
      dxz     :     0.092924
      dyz     :     0.092924
      dx2y2   :     0.081468
      dxy     :     0.092924
      f0      :     0.011453  f :     0.057088
      f+1     :     0.008474
      f-1     :     0.008474
      f+2     :     0.006687
      f-2     :     0.002670
      f+3     :     0.009665
      f-3     :     0.009665


                      *****************************
                      * MAYER POPULATION ANALYSIS *
                      *****************************

  NA   - Mulliken gross atomic population
  ZA   - Total nuclear charge
  QA   - Mulliken gross atomic charge
  VA   - Mayer's total valence
  BVA  - Mayer's bonded valence
  FA   - Mayer's free valence

  ATOM       NA         ZA         QA         VA         BVA        FA
  0 H      0.9125     1.0000     0.0875     0.9504     0.9504    -0.0000
  1 C      6.0875     6.0000    -0.0875     3.8553     3.8553    -0.0000
  2 H      0.9125     1.0000     0.0875     0.9504     0.9504    -0.0000
  3 C      6.0875     6.0000    -0.0875     3.8553     3.8553    -0.0000
  4 H      0.9125     1.0000     0.0875     0.9504     0.9504     0.0000
  5 C      6.0875     6.0000    -0.0875     3.8553     3.8553    -0.0000
  6 H      0.9125     1.0000     0.0875     0.9504     0.9504    -0.0000
  7 C      6.0875     6.0000    -0.0875     3.8553     3.8553    -0.0000
  8 H      0.9125     1.0000     0.0875     0.9504     0.9504    -0.0000
  9 C      6.0875     6.0000    -0.0875     3.8553     3.8553    -0.0000
 10 H      0.9125     1.0000     0.0875     0.9504     0.9504     0.0000
 11 C      6.0875     6.0000    -0.0875     3.8553     3.8553     0.0000
 12 H      0.9125     1.0000     0.0875     0.9504     0.9504    -0.0000
 13 C      6.0875     6.0000    -0.0875     3.8553     3.8553    -0.0000
 14 H      0.9125     1.0000     0.0875     0.9504     0.9504     0.0000
 15 C      6.0875     6.0000    -0.0875     3.8553     3.8553     0.0000

  Mayer bond orders larger than 0.1
B(  0-H ,  1-C ) :   0.9505 B(  1-C ,  3-C ) :   0.9177 B(  1-C ,  5-C ) :   0.9177 
B(  1-C ,  7-C ) :   0.9177 B(  2-H ,  3-C ) :   0.9505 B(  3-C ,  9-C ) :   0.9177 
B(  3-C , 11-C ) :   0.9177 B(  4-H ,  5-C ) :   0.9505 B(  5-C ,  9-C ) :   0.9177 
B(  5-C , 13-C ) :   0.9177 B(  6-H ,  7-C ) :   0.9505 B(  7-C , 11-C ) :   0.9177 
B(  7-C , 13-C ) :   0.9177 B(  8-H ,  9-C ) :   0.9505 B(  9-C , 15-C ) :   0.9177 
B( 10-H , 11-C ) :   0.9505 B( 11-C , 15-C ) :   0.9177 B( 12-H , 13-C ) :   0.9505 
B( 13-C , 15-C ) :   0.9177 B( 14-H , 15-C ) :   0.9505 

-------
TIMINGS
-------

Total SCF time: 0 days 0 hours 0 min 53 sec 

Total time                  ....      53.896 sec
Sum of individual times     ....      53.723 sec  ( 99.7%)

Fock matrix formation       ....      53.160 sec  ( 98.6%)
  XC integration            ....       1.670 sec  (  3.1% of F)
    Basis function eval.    ....       0.313 sec  ( 18.7% of XC)
    Density eval.           ....       0.331 sec  ( 19.8% of XC)
    XC-Functional eval.     ....       0.029 sec  (  1.7% of XC)
    XC-Potential eval.      ....       0.904 sec  ( 54.1% of XC)
Diagonalization             ....       0.011 sec  (  0.0%)
Density matrix formation    ....       0.004 sec  (  0.0%)
Population analysis         ....       0.034 sec  (  0.1%)
Initial guess               ....       0.020 sec  (  0.0%)
Orbital Transformation      ....       0.000 sec  (  0.0%)
Orbital Orthonormalization  ....       0.014 sec  (  0.0%)
DIIS solution               ....       0.004 sec  (  0.0%)
SOSCF solution              ....       0.069 sec  (  0.1%)
Grid generation             ....       0.422 sec  (  0.8%)

-------------------------   --------------------
FINAL SINGLE POINT ENERGY      -309.357589948912
-------------------------   --------------------

                                *** OPTIMIZATION RUN DONE ***

                            ***************************************
                            *     ORCA property calculations      *
                            ***************************************

                                    ---------------------
                                    Active property flags
                                    ---------------------
   (+) Dipole Moment


------------------------------------------------------------------------------
                       ORCA ELECTRIC PROPERTIES CALCULATION
------------------------------------------------------------------------------

Dipole Moment Calculation                       ... on
Quadrupole Moment Calculation                   ... off
Polarizability Calculation                      ... off
GBWName                                         ... /home/vladimir/git/private/ORCA/C8H8/cubane/optimize/DFT/B3LYP/TZVP/./cubane.gbw
Electron density file                           ... /home/vladimir/git/private/ORCA/C8H8/cubane/optimize/DFT/B3LYP/TZVP/./cubane.scfp.tmp

-------------
DIPOLE MOMENT
-------------
                                X             Y             Z
Electronic contribution:      0.00000       0.00000       0.00000
Nuclear contribution   :     -0.00000       0.00000      -0.00000
                        -----------------------------------------
Total Dipole Moment    :     -0.00000       0.00000      -0.00000
                        -----------------------------------------
Magnitude (a.u.)       :      0.00000
Magnitude (Debye)      :      0.00000


Timings for individual modules:

Sum of individual times         ...      435.381 sec (=   7.256 min)
GTO integral calculation        ...        2.029 sec (=   0.034 min)   0.5 %
SCF iterations                  ...      289.045 sec (=   4.817 min)  66.4 %
SCF Gradient evaluation         ...      144.113 sec (=   2.402 min)  33.1 %
Geometry relaxation             ...        0.194 sec (=   0.003 min)   0.0 %
                             ****ORCA TERMINATED NORMALLY****
TOTAL RUN TIME: 0 days 0 hours 7 minutes 15 seconds 873 msec
