 argument  1 = cubane.nw
                                         
                                         


              Northwest Computational Chemistry Package (NWChem) 6.3
              ------------------------------------------------------


                    Environmental Molecular Sciences Laboratory
                       Pacific Northwest National Laboratory
                                Richland, WA 99352

                              Copyright (c) 1994-2013
                       Pacific Northwest National Laboratory
                            Battelle Memorial Institute

             NWChem is an open-source computational chemistry package
                        distributed under the terms of the
                      Educational Community License (ECL) 2.0
             A copy of the license is included with this distribution
                              in the LICENSE.TXT file

                                  ACKNOWLEDGMENT
                                  --------------

            This software and its documentation were developed at the
            EMSL at Pacific Northwest National Laboratory, a multiprogram
            national laboratory, operated for the U.S. Department of Energy
            by Battelle under Contract Number DE-AC05-76RL01830. Support
            for this work was provided by the Department of Energy Office
            of Biological and Environmental Research, Office of Basic
            Energy Sciences, and the Office of Advanced Scientific Computing.


           Job information
           ---------------

    hostname        = kbob-G41MT-S2
    program         = nwchem
    date            = Sat May 17 18:43:13 2014

    compiled        = Сб._мая_10_13:03:22_2014
    source          = /opt/Nwchem-6.3.revision25564-src.2014-05-03
    nwchem branch   = Development
    nwchem revision = 25564
    ga revision     = 10486
    input           = cubane.nw
    prefix          = cubane.
    data base       = /mnt/scratch/cubane.db
    status          = startup
    nproc           =        1
    time left       =     -1s



           Memory information
           ------------------

    heap     =   13107198 doubles =    100.0 Mbytes
    stack    =   13107195 doubles =    100.0 Mbytes
    global   =  262144000 doubles =   2000.0 Mbytes (distinct from heap & stack)
    total    =  288358393 doubles =   2200.0 Mbytes
    verify   = yes
    hardfail = no 


           Directory information
           ---------------------

  0 permanent = /mnt/scratch
  0 scratch   = /mnt/scratch




                                NWChem Input Module
                                -------------------


                           cubane CCSD/cc-pVDZ optimize
                           ----------------------------

 Scaling coordinates for geometry "geometry" by  1.889725989
 (inverse scale =  0.529177249)

 Turning off AUTOSYM since
 SYMMETRY directive was detected!


          ------
          auto-z
          ------


                             Geometry "geometry" -> ""
                             -------------------------

 Output coordinates in angstroms (scale by  1.889725989 to convert to a.u.)

  No.       Tag          Charge          X              Y              Z
 ---- ---------------- ---------- -------------- -------------- --------------
    1 H                    1.0000     1.42500000     1.42500000     1.42500000
    2 H                    1.0000    -1.42500000    -1.42500000     1.42500000
    3 H                    1.0000    -1.42500000     1.42500000    -1.42500000
    4 H                    1.0000     1.42500000    -1.42500000    -1.42500000
    5 H                    1.0000    -1.42500000    -1.42500000    -1.42500000
    6 H                    1.0000     1.42500000     1.42500000    -1.42500000
    7 H                    1.0000     1.42500000    -1.42500000     1.42500000
    8 H                    1.0000    -1.42500000     1.42500000     1.42500000
    9 C                    6.0000     0.78960000     0.78960000     0.78960000
   10 C                    6.0000    -0.78960000    -0.78960000     0.78960000
   11 C                    6.0000    -0.78960000     0.78960000    -0.78960000
   12 C                    6.0000     0.78960000    -0.78960000    -0.78960000
   13 C                    6.0000    -0.78960000    -0.78960000    -0.78960000
   14 C                    6.0000     0.78960000     0.78960000    -0.78960000
   15 C                    6.0000     0.78960000    -0.78960000     0.78960000
   16 C                    6.0000    -0.78960000     0.78960000     0.78960000

      Atomic Mass 
      ----------- 

      H                  1.007825
      C                 12.000000


 Effective nuclear repulsion energy (a.u.)     364.6425104478

            Nuclear Dipole moment (a.u.) 
            ----------------------------
        X                 Y               Z
 ---------------- ---------------- ----------------
     0.0000000000     0.0000000000     0.0000000000

      Symmetry information
      --------------------

 Group name             D2h       
 Group number             26
 Group order               8
 No. of unique centers     2

      Symmetry unique atoms

     1    9



                                Z-matrix (autoz)
                                -------- 

 Units are Angstrom for bonds and degrees for angles

      Type          Name      I     J     K     L     M      Value
      ----------- --------  ----- ----- ----- ----- ----- ----------
    1 Stretch                  1     9                       1.10055
    2 Stretch                  2    10                       1.10055
    3 Stretch                  3    11                       1.10055
    4 Stretch                  4    12                       1.10055
    5 Stretch                  5    13                       1.10055
    6 Stretch                  6    14                       1.10055
    7 Stretch                  7    15                       1.10055
    8 Stretch                  8    16                       1.10055
    9 Stretch                  9    14                       1.57920
   10 Stretch                  9    15                       1.57920
   11 Stretch                  9    16                       1.57920
   12 Stretch                 10    13                       1.57920
   13 Stretch                 10    15                       1.57920
   14 Stretch                 10    16                       1.57920
   15 Stretch                 11    13                       1.57920
   16 Stretch                 11    14                       1.57920
   17 Stretch                 11    16                       1.57920
   18 Stretch                 12    13                       1.57920
   19 Stretch                 12    14                       1.57920
   20 Stretch                 12    15                       1.57920
   21 Bend                     1     9    14               125.26439
   22 Bend                     1     9    15               125.26439
   23 Bend                     1     9    16               125.26439
   24 Bend                     2    10    13               125.26439
   25 Bend                     2    10    15               125.26439
   26 Bend                     2    10    16               125.26439
   27 Bend                     3    11    13               125.26439
   28 Bend                     3    11    14               125.26439
   29 Bend                     3    11    16               125.26439
   30 Bend                     4    12    13               125.26439
   31 Bend                     4    12    14               125.26439
   32 Bend                     4    12    15               125.26439
   33 Bend                     5    13    10               125.26439
   34 Bend                     5    13    11               125.26439
   35 Bend                     5    13    12               125.26439
   36 Bend                     6    14     9               125.26439
   37 Bend                     6    14    11               125.26439
   38 Bend                     6    14    12               125.26439
   39 Bend                     7    15     9               125.26439
   40 Bend                     7    15    10               125.26439
   41 Bend                     7    15    12               125.26439
   42 Bend                     8    16     9               125.26439
   43 Bend                     8    16    10               125.26439
   44 Bend                     8    16    11               125.26439
   45 Bend                     9    14    11                90.00000
   46 Bend                     9    14    12                90.00000
   47 Bend                     9    15    10                90.00000
   48 Bend                     9    15    12                90.00000
   49 Bend                     9    16    10                90.00000
   50 Bend                     9    16    11                90.00000
   51 Bend                    10    13    11                90.00000
   52 Bend                    10    13    12                90.00000
   53 Bend                    10    15    12                90.00000
   54 Bend                    10    16    11                90.00000
   55 Bend                    11    13    12                90.00000
   56 Bend                    11    14    12                90.00000
   57 Bend                    13    10    15                90.00000
   58 Bend                    13    10    16                90.00000
   59 Bend                    13    11    14                90.00000
   60 Bend                    13    11    16                90.00000
   61 Bend                    13    12    14                90.00000
   62 Bend                    13    12    15                90.00000
   63 Bend                    14     9    15                90.00000
   64 Bend                    14     9    16                90.00000
   65 Bend                    14    11    16                90.00000
   66 Bend                    14    12    15                90.00000
   67 Bend                    15     9    16                90.00000
   68 Bend                    15    10    16                90.00000
   69 Torsion                  1     9    14     6           0.00000
   70 Torsion                  1     9    14    11        -135.00000
   71 Torsion                  1     9    14    12         135.00000
   72 Torsion                  1     9    15     7           0.00000
   73 Torsion                  1     9    15    10         135.00000
   74 Torsion                  1     9    15    12        -135.00000
   75 Torsion                  1     9    16     8           0.00000
   76 Torsion                  1     9    16    10        -135.00000
   77 Torsion                  1     9    16    11         135.00000
   78 Torsion                  2    10    13     5           0.00000
   79 Torsion                  2    10    13    11         135.00000
   80 Torsion                  2    10    13    12        -135.00000
   81 Torsion                  2    10    15     7           0.00000
   82 Torsion                  2    10    15     9        -135.00000
   83 Torsion                  2    10    15    12         135.00000
   84 Torsion                  2    10    16     8           0.00000
   85 Torsion                  2    10    16     9         135.00000
   86 Torsion                  2    10    16    11        -135.00000
   87 Torsion                  3    11    13     5           0.00000
   88 Torsion                  3    11    13    10        -135.00000
   89 Torsion                  3    11    13    12         135.00000
   90 Torsion                  3    11    14     6           0.00000
   91 Torsion                  3    11    14     9         135.00000
   92 Torsion                  3    11    14    12        -135.00000
   93 Torsion                  3    11    16     8           0.00000
   94 Torsion                  3    11    16     9        -135.00000
   95 Torsion                  3    11    16    10         135.00000
   96 Torsion                  4    12    13     5           0.00000
   97 Torsion                  4    12    13    10         135.00000
   98 Torsion                  4    12    13    11        -135.00000
   99 Torsion                  4    12    14     6           0.00000
  100 Torsion                  4    12    14     9        -135.00000
  101 Torsion                  4    12    14    11         135.00000
  102 Torsion                  4    12    15     7           0.00000
  103 Torsion                  4    12    15     9         135.00000
  104 Torsion                  4    12    15    10        -135.00000
  105 Torsion                  5    13    10    15         135.00000
  106 Torsion                  5    13    10    16        -135.00000
  107 Torsion                  5    13    11    14        -135.00000
  108 Torsion                  5    13    11    16         135.00000
  109 Torsion                  5    13    12    14         135.00000
  110 Torsion                  5    13    12    15        -135.00000
  111 Torsion                  6    14     9    15        -135.00000
  112 Torsion                  6    14     9    16         135.00000
  113 Torsion                  6    14    11    13         135.00000
  114 Torsion                  6    14    11    16        -135.00000
  115 Torsion                  6    14    12    13        -135.00000
  116 Torsion                  6    14    12    15         135.00000
  117 Torsion                  7    15     9    14         135.00000
  118 Torsion                  7    15     9    16        -135.00000
  119 Torsion                  7    15    10    13        -135.00000
  120 Torsion                  7    15    10    16         135.00000
  121 Torsion                  7    15    12    13         135.00000
  122 Torsion                  7    15    12    14        -135.00000
  123 Torsion                  8    16     9    14        -135.00000
  124 Torsion                  8    16     9    15         135.00000
  125 Torsion                  8    16    10    13         135.00000
  126 Torsion                  8    16    10    15        -135.00000
  127 Torsion                  8    16    11    13        -135.00000
  128 Torsion                  8    16    11    14         135.00000
  129 Torsion                  9    14    11    13         -90.00000
  130 Torsion                  9    14    11    16           0.00000
  131 Torsion                  9    14    12    13          90.00000
  132 Torsion                  9    14    12    15           0.00000
  133 Torsion                  9    15    10    13          90.00000
  134 Torsion                  9    15    10    16           0.00000
  135 Torsion                  9    15    12    13         -90.00000
  136 Torsion                  9    15    12    14           0.00000
  137 Torsion                  9    16    10    13         -90.00000
  138 Torsion                  9    16    10    15           0.00000
  139 Torsion                  9    16    11    13          90.00000
  140 Torsion                  9    16    11    14           0.00000
  141 Torsion                 10    13    11    14          90.00000
  142 Torsion                 10    13    11    16           0.00000
  143 Torsion                 10    13    12    14         -90.00000
  144 Torsion                 10    13    12    15           0.00000
  145 Torsion                 10    15     9    14         -90.00000
  146 Torsion                 10    15     9    16           0.00000
  147 Torsion                 10    15    12    13           0.00000
  148 Torsion                 10    15    12    14          90.00000
  149 Torsion                 10    16     9    14          90.00000
  150 Torsion                 10    16     9    15           0.00000
  151 Torsion                 10    16    11    13           0.00000
  152 Torsion                 10    16    11    14         -90.00000
  153 Torsion                 11    13    10    15         -90.00000
  154 Torsion                 11    13    10    16           0.00000
  155 Torsion                 11    13    12    14           0.00000
  156 Torsion                 11    13    12    15          90.00000
  157 Torsion                 11    14     9    15          90.00000
  158 Torsion                 11    14     9    16           0.00000
  159 Torsion                 11    14    12    13           0.00000
  160 Torsion                 11    14    12    15         -90.00000
  161 Torsion                 11    16     9    14           0.00000
  162 Torsion                 11    16     9    15         -90.00000
  163 Torsion                 11    16    10    13           0.00000
  164 Torsion                 11    16    10    15          90.00000
  165 Torsion                 12    13    10    15           0.00000
  166 Torsion                 12    13    10    16          90.00000
  167 Torsion                 12    13    11    14           0.00000
  168 Torsion                 12    13    11    16         -90.00000
  169 Torsion                 12    14     9    15           0.00000
  170 Torsion                 12    14     9    16         -90.00000
  171 Torsion                 12    14    11    13           0.00000
  172 Torsion                 12    14    11    16          90.00000
  173 Torsion                 12    15     9    14           0.00000
  174 Torsion                 12    15     9    16          90.00000
  175 Torsion                 12    15    10    13           0.00000
  176 Torsion                 12    15    10    16         -90.00000


            XYZ format geometry
            -------------------
    16
 geometry
 H                     1.42500000     1.42500000     1.42500000
 H                    -1.42500000    -1.42500000     1.42500000
 H                    -1.42500000     1.42500000    -1.42500000
 H                     1.42500000    -1.42500000    -1.42500000
 H                    -1.42500000    -1.42500000    -1.42500000
 H                     1.42500000     1.42500000    -1.42500000
 H                     1.42500000    -1.42500000     1.42500000
 H                    -1.42500000     1.42500000     1.42500000
 C                     0.78960000     0.78960000     0.78960000
 C                    -0.78960000    -0.78960000     0.78960000
 C                    -0.78960000     0.78960000    -0.78960000
 C                     0.78960000    -0.78960000    -0.78960000
 C                    -0.78960000    -0.78960000    -0.78960000
 C                     0.78960000     0.78960000    -0.78960000
 C                     0.78960000    -0.78960000     0.78960000
 C                    -0.78960000     0.78960000     0.78960000

 ==============================================================================
                                internuclear distances
 ------------------------------------------------------------------------------
       center one      |      center two      | atomic units |  angstroms
 ------------------------------------------------------------------------------
    9 C                |   1 H                |     2.07973  |     1.10055
   10 C                |   2 H                |     2.07973  |     1.10055
   11 C                |   3 H                |     2.07973  |     1.10055
   12 C                |   4 H                |     2.07973  |     1.10055
   13 C                |   5 H                |     2.07973  |     1.10055
   13 C                |  10 C                |     2.98426  |     1.57920
   13 C                |  11 C                |     2.98426  |     1.57920
   13 C                |  12 C                |     2.98426  |     1.57920
   14 C                |   6 H                |     2.07973  |     1.10055
   14 C                |   9 C                |     2.98426  |     1.57920
   14 C                |  11 C                |     2.98426  |     1.57920
   14 C                |  12 C                |     2.98426  |     1.57920
   15 C                |   7 H                |     2.07973  |     1.10055
   15 C                |   9 C                |     2.98426  |     1.57920
   15 C                |  10 C                |     2.98426  |     1.57920
   15 C                |  12 C                |     2.98426  |     1.57920
   16 C                |   8 H                |     2.07973  |     1.10055
   16 C                |   9 C                |     2.98426  |     1.57920
   16 C                |  10 C                |     2.98426  |     1.57920
   16 C                |  11 C                |     2.98426  |     1.57920
 ------------------------------------------------------------------------------
                         number of included internuclear distances:         20
 ==============================================================================



 ==============================================================================
                                 internuclear angles
 ------------------------------------------------------------------------------
        center 1       |       center 2       |       center 3       |  degrees
 ------------------------------------------------------------------------------
    1 H                |   9 C                |  14 C                |   125.26
    1 H                |   9 C                |  15 C                |   125.26
    1 H                |   9 C                |  16 C                |   125.26
   14 C                |   9 C                |  15 C                |    90.00
   14 C                |   9 C                |  16 C                |    90.00
   15 C                |   9 C                |  16 C                |    90.00
    2 H                |  10 C                |  13 C                |   125.26
    2 H                |  10 C                |  15 C                |   125.26
    2 H                |  10 C                |  16 C                |   125.26
   13 C                |  10 C                |  15 C                |    90.00
   13 C                |  10 C                |  16 C                |    90.00
   15 C                |  10 C                |  16 C                |    90.00
    3 H                |  11 C                |  13 C                |   125.26
    3 H                |  11 C                |  14 C                |   125.26
    3 H                |  11 C                |  16 C                |   125.26
   13 C                |  11 C                |  14 C                |    90.00
   13 C                |  11 C                |  16 C                |    90.00
   14 C                |  11 C                |  16 C                |    90.00
    4 H                |  12 C                |  13 C                |   125.26
    4 H                |  12 C                |  14 C                |   125.26
    4 H                |  12 C                |  15 C                |   125.26
   13 C                |  12 C                |  14 C                |    90.00
   13 C                |  12 C                |  15 C                |    90.00
   14 C                |  12 C                |  15 C                |    90.00
    5 H                |  13 C                |  10 C                |   125.26
    5 H                |  13 C                |  11 C                |   125.26
    5 H                |  13 C                |  12 C                |   125.26
   10 C                |  13 C                |  11 C                |    90.00
   10 C                |  13 C                |  12 C                |    90.00
   11 C                |  13 C                |  12 C                |    90.00
    6 H                |  14 C                |   9 C                |   125.26
    6 H                |  14 C                |  11 C                |   125.26
    6 H                |  14 C                |  12 C                |   125.26
    9 C                |  14 C                |  11 C                |    90.00
    9 C                |  14 C                |  12 C                |    90.00
   11 C                |  14 C                |  12 C                |    90.00
    7 H                |  15 C                |   9 C                |   125.26
    7 H                |  15 C                |  10 C                |   125.26
    7 H                |  15 C                |  12 C                |   125.26
    9 C                |  15 C                |  10 C                |    90.00
    9 C                |  15 C                |  12 C                |    90.00
   10 C                |  15 C                |  12 C                |    90.00
    8 H                |  16 C                |   9 C                |   125.26
    8 H                |  16 C                |  10 C                |   125.26
    8 H                |  16 C                |  11 C                |   125.26
    9 C                |  16 C                |  10 C                |    90.00
    9 C                |  16 C                |  11 C                |    90.00
   10 C                |  16 C                |  11 C                |    90.00
 ------------------------------------------------------------------------------
                            number of included internuclear angles:         48
 ==============================================================================



  library name resolved from: environment
  library file name is: </opt/Nwchem-6.3.revision25564-src.2014-05-03/src/basis/libraries/>
  
                      Basis "ao basis" -> "" (spherical)
                      -----
  H (Hydrogen)
  ------------
            Exponent  Coefficients 
       -------------- ---------------------------------------------------------
  1 S  1.30100000E+01  0.019685
  1 S  1.96200000E+00  0.137977
  1 S  4.44600000E-01  0.478148

  2 S  1.22000000E-01  1.000000

  3 P  7.27000000E-01  1.000000

  C (Carbon)
  ----------
            Exponent  Coefficients 
       -------------- ---------------------------------------------------------
  1 S  6.66500000E+03  0.000692
  1 S  1.00000000E+03  0.005329
  1 S  2.28000000E+02  0.027077
  1 S  6.47100000E+01  0.101718
  1 S  2.10600000E+01  0.274740
  1 S  7.49500000E+00  0.448564
  1 S  2.79700000E+00  0.285074
  1 S  5.21500000E-01  0.015204

  2 S  6.66500000E+03 -0.000146
  2 S  1.00000000E+03 -0.001154
  2 S  2.28000000E+02 -0.005725
  2 S  6.47100000E+01 -0.023312
  2 S  2.10600000E+01 -0.063955
  2 S  7.49500000E+00 -0.149981
  2 S  2.79700000E+00 -0.127262
  2 S  5.21500000E-01  0.544529

  3 S  1.59600000E-01  1.000000

  4 P  9.43900000E+00  0.038109
  4 P  2.00200000E+00  0.209480
  4 P  5.45600000E-01  0.508557

  5 P  1.51700000E-01  1.000000

  6 D  5.50000000E-01  1.000000



 Summary of "ao basis" -> "" (spherical)
 ------------------------------------------------------------------------------
       Tag                 Description            Shells   Functions and Types
 ---------------- ------------------------------  ------  ---------------------
 H                          cc-pVDZ                  3        5   2s1p
 C                          cc-pVDZ                  6       14   3s2p1d




                           NWChem Geometry Optimization
                           ----------------------------




                           cubane CCSD/cc-pVDZ optimize


 maximum gradient threshold         (gmax) =   0.000450
 rms gradient threshold             (grms) =   0.000300
 maximum cartesian step threshold   (xmax) =   0.001800
 rms cartesian step threshold       (xrms) =   0.001200
 fixed trust radius                (trust) =   0.300000
 maximum step size to saddle      (sadstp) =   0.100000
 energy precision                  (eprec) =   1.0D-07
 maximum number of steps          (nptopt) =   20
 initial hessian option           (inhess) =    0
 line search option               (linopt) =    1
 hessian update option            (modupd) =    1
 saddle point option              (modsad) =    0
 initial eigen-mode to follow     (moddir) =    0
 initial variable to follow       (vardir) =    0
 follow first negative mode     (firstneg) =    T
 apply conjugacy                    (opcg) =    F
 source of zmatrix                         =   autoz   


          -------------------
          Energy Minimization
          -------------------


 Names of Z-matrix variables 
    1              2              3              4              5         
    6              7              8              9             10         
   11             12             13             14             15         
   16             17             18             19             20         
   21             22             23             24             25         
   26             27             28             29             30         
   31             32             33             34             35         
   36             37             38             39             40         
   41             42             43             44             45         
   46             47             48             49             50         
   51             52             53             54             55         
   56             57             58             59             60         
   61             62             63             64             65         
   66             67             68             69             70         
   71             72             73             74             75         
   76             77             78             79             80         
   81             82             83             84             85         
   86             87             88             89             90         
   91             92             93             94             95         
   96             97             98             99            100         
  101            102            103            104            105         
  106            107            108            109            110         
  111            112            113            114            115         
  116            117            118            119            120         
  121            122            123            124            125         
  126            127            128            129            130         
  131            132            133            134            135         
  136            137            138            139            140         
  141            142            143            144            145         
  146            147            148            149            150         
  151            152            153            154            155         
  156            157            158            159            160         
  161            162            163            164            165         
  166            167            168            169            170         
  171            172            173            174            175         
  176         

 Variables with the same non-blank name are constrained to be equal


 Using diagonal initial Hessian 
 Scaling for Hessian diagonals: bonds = 1.00  angles = 0.25  torsions = 0.10

          --------
          Step   0
          --------


                         Geometry "geometry" -> "geometry"
                         ---------------------------------

 Output coordinates in angstroms (scale by  1.889725989 to convert to a.u.)

  No.       Tag          Charge          X              Y              Z
 ---- ---------------- ---------- -------------- -------------- --------------
    1 H                    1.0000     1.42500000     1.42500000     1.42500000
    2 H                    1.0000    -1.42500000    -1.42500000     1.42500000
    3 H                    1.0000    -1.42500000     1.42500000    -1.42500000
    4 H                    1.0000     1.42500000    -1.42500000    -1.42500000
    5 H                    1.0000    -1.42500000    -1.42500000    -1.42500000
    6 H                    1.0000     1.42500000     1.42500000    -1.42500000
    7 H                    1.0000     1.42500000    -1.42500000     1.42500000
    8 H                    1.0000    -1.42500000     1.42500000     1.42500000
    9 C                    6.0000     0.78960000     0.78960000     0.78960000
   10 C                    6.0000    -0.78960000    -0.78960000     0.78960000
   11 C                    6.0000    -0.78960000     0.78960000    -0.78960000
   12 C                    6.0000     0.78960000    -0.78960000    -0.78960000
   13 C                    6.0000    -0.78960000    -0.78960000    -0.78960000
   14 C                    6.0000     0.78960000     0.78960000    -0.78960000
   15 C                    6.0000     0.78960000    -0.78960000     0.78960000
   16 C                    6.0000    -0.78960000     0.78960000     0.78960000

      Atomic Mass 
      ----------- 

      H                  1.007825
      C                 12.000000


 Effective nuclear repulsion energy (a.u.)     364.6425104478

            Nuclear Dipole moment (a.u.) 
            ----------------------------
        X                 Y               Z
 ---------------- ---------------- ----------------
     0.0000000000     0.0000000000     0.0000000000

      Symmetry information
      --------------------

 Group name             D2h       
 Group number             26
 Group order               8
 No. of unique centers     2

      Symmetry unique atoms

     1    9

                         NWChem Numerical Gradients Module
                         ---------------------------------


 No. of totally-symmetric internal modes =   6

                                 NWChem SCF Module
                                 -----------------


                           cubane CCSD/cc-pVDZ optimize



  ao basis        = "ao basis"
  functions       =   152
  atoms           =    16
  closed shells   =    28
  open shells     =     0
  charge          =   0.00
  wavefunction    = RHF 
  input vectors   = atomic
  output vectors  = /mnt/scratch/cubane.movecs
  use symmetry    = T
  symmetry adapt  = T


 Summary of "ao basis" -> "ao basis" (spherical)
 ------------------------------------------------------------------------------
       Tag                 Description            Shells   Functions and Types
 ---------------- ------------------------------  ------  ---------------------
 H                          cc-pVDZ                  3        5   2s1p
 C                          cc-pVDZ                  6       14   3s2p1d


      Symmetry analysis of basis
      --------------------------

        ag         19
        au         19
        b1g        19
        b1u        19
        b2g        19
        b2u        19
        b3g        19
        b3u        19


 Forming initial guess at       0.7s


      Superposition of Atomic Density Guess
      -------------------------------------

 Sum of atomic energies:        -305.32340088

      Non-variational initial energy
      ------------------------------

 Total energy =    -311.499856
 1-e energy   =   -1132.668204
 2-e energy   =     456.525838
 HOMO         =      -0.284109
 LUMO         =       0.058425


      Symmetry analysis of molecular orbitals - initial
      -------------------------------------------------


 !! scf_movecs_sym_adapt:   79 vectors were symmetry contaminated

  Symmetry fudging

 !! scf_movecs_sym_adapt:   71 vectors were symmetry contaminated

  Numbering of irreducible representations: 

     1 ag          2 au          3 b1g         4 b1u         5 b2g     
     6 b2u         7 b3g         8 b3u     

  Orbital symmetries:

     1 ag          2 b2u         3 b3u         4 b1u         5 b2g     
     6 b3g         7 b1g         8 au          9 ag         10 b3u     
    11 b2u        12 b1u        13 b3g        14 b2g        15 b1g     
    16 ag         17 au         18 ag         19 ag         20 b3u     
    21 b2u        22 b1u        23 b3u        24 b2u        25 b1u     
    26 b2g        27 b3g        28 b1g        29 b3u        30 b2u     
    31 b1u        32 ag         33 b1u        34 b3u        35 b2u     
    36 b2g        37 b3g        38 b1g     


 Starting SCF solution at       2.3s



 ----------------------------------------------
         Quadratically convergent ROHF

 Convergence threshold     :          1.000E-04
 Maximum no. of iterations :           30
 Final Fock-matrix accuracy:          1.000E-07
 ----------------------------------------------


              iter       energy          gnorm     gmax       time
             ----- ------------------- --------- --------- --------
                 1     -307.3309703212  9.09D-01  2.43D-01      6.7
                 2     -307.4106216900  1.60D-01  3.75D-02     16.0
                 3     -307.4123947463  5.57D-03  1.37D-03     29.9
                 4     -307.4123983034  4.77D-06  9.44D-07     54.4


       Final RHF  results 
       ------------------ 

         Total SCF energy =   -307.412398303394
      One-electron energy =  -1138.433856676383
      Two-electron energy =    466.378947925210
 Nuclear repulsion energy =    364.642510447779

        Time for solution =     52.4s



       Symmetry analysis of molecular orbitals - final
       -----------------------------------------------

  Numbering of irreducible representations: 

     1 ag          2 au          3 b1g         4 b1u         5 b2g     
     6 b2u         7 b3g         8 b3u     

  Orbital symmetries:

     1 ag          2 b3u         3 b2u         4 b1u         5 b3g     
     6 b2g         7 b1g         8 au          9 ag         10 b1u     
    11 b2u        12 b3u        13 b3g        14 b2g        15 b1g     
    16 ag         17 au         18 b2u        19 b3u        20 b1u     
    21 ag         22 ag         23 b2u        24 b3u        25 b1u     
    26 b3g        27 b2g        28 b1g        29 ag         30 b2u     
    31 b3u        32 b1u        33 b2g        34 b3g        35 b1g     
    36 b2u        37 b3u        38 b1u     

             Final eigenvalues
             -----------------

              1      
    1  -11.2301
    2  -11.2296
    3  -11.2296
    4  -11.2296
    5  -11.2291
    6  -11.2291
    7  -11.2291
    8  -11.2286
    9   -1.2377
   10   -0.9754
   11   -0.9754
   12   -0.9754
   13   -0.7659
   14   -0.7659
   15   -0.7659
   16   -0.7040
   17   -0.6394
   18   -0.5764
   19   -0.5764
   20   -0.5764
   21   -0.5744
   22   -0.5744
   23   -0.3891
   24   -0.3891
   25   -0.3891
   26   -0.3841
   27   -0.3841
   28   -0.3841
   29    0.1817
   30    0.2026
   31    0.2026
   32    0.2026
   33    0.2534
   34    0.2534
   35    0.2534
   36    0.2569
   37    0.2569
   38    0.2569

                       ROHF Final Molecular Orbital Analysis
                       -------------------------------------

 Vector    9  Occ=2.000000D+00  E=-1.237687D+00  Symmetry=ag
              MO Center= -1.3D-17,  1.0D-17,  1.3D-17, r^2= 1.7D+00
   Bfn.  Coefficient  Atom+Function         Bfn.  Coefficient  Atom+Function  
  ----- ------------  ---------------      ----- ------------  ---------------
    42      0.134721   9 C  s                56      0.134721  10 C  s         
    70      0.134721  11 C  s                84      0.134721  12 C  s         
    98      0.134721  13 C  s               112      0.134721  14 C  s         
   126      0.134721  15 C  s               140      0.134721  16 C  s         

 Vector   10  Occ=2.000000D+00  E=-9.754300D-01  Symmetry=b1u
              MO Center=  7.7D-17,  1.7D-17,  8.9D-17, r^2= 2.6D+00
   Bfn.  Coefficient  Atom+Function         Bfn.  Coefficient  Atom+Function  
  ----- ------------  ---------------      ----- ------------  ---------------
    42      0.137526   9 C  s                56      0.137526  10 C  s         
    70     -0.137526  11 C  s                84     -0.137526  12 C  s         
    98     -0.137526  13 C  s               112     -0.137526  14 C  s         
   126      0.137526  15 C  s               140      0.137526  16 C  s         

 Vector   11  Occ=2.000000D+00  E=-9.754300D-01  Symmetry=b2u
              MO Center=  2.3D-17,  4.7D-18, -8.4D-17, r^2= 2.6D+00
   Bfn.  Coefficient  Atom+Function         Bfn.  Coefficient  Atom+Function  
  ----- ------------  ---------------      ----- ------------  ---------------
    42      0.137526   9 C  s                56     -0.137526  10 C  s         
    70      0.137526  11 C  s                84     -0.137526  12 C  s         
    98     -0.137526  13 C  s               112      0.137526  14 C  s         
   126     -0.137526  15 C  s               140      0.137526  16 C  s         

 Vector   12  Occ=2.000000D+00  E=-9.754300D-01  Symmetry=b3u
              MO Center=  2.3D-16,  7.3D-17,  1.6D-16, r^2= 2.6D+00
   Bfn.  Coefficient  Atom+Function         Bfn.  Coefficient  Atom+Function  
  ----- ------------  ---------------      ----- ------------  ---------------
    42      0.137526   9 C  s                56     -0.137526  10 C  s         
    70     -0.137526  11 C  s                84      0.137526  12 C  s         
    98     -0.137526  13 C  s               112      0.137526  14 C  s         
   126      0.137526  15 C  s               140     -0.137526  16 C  s         

 Vector   13  Occ=2.000000D+00  E=-7.658639D-01  Symmetry=b3g
              MO Center=  4.9D-18,  1.7D-16,  2.4D-16, r^2= 4.1D+00
   Bfn.  Coefficient  Atom+Function         Bfn.  Coefficient  Atom+Function  
  ----- ------------  ---------------      ----- ------------  ---------------
    43      0.153835   9 C  s                57     -0.153835  10 C  s         
    71     -0.153835  11 C  s                85      0.153835  12 C  s         
    99      0.153835  13 C  s               113     -0.153835  14 C  s         
   127     -0.153835  15 C  s               141      0.153835  16 C  s         

 Vector   14  Occ=2.000000D+00  E=-7.658639D-01  Symmetry=b2g
              MO Center= -5.8D-17, -1.5D-17, -1.1D-16, r^2= 4.1D+00
   Bfn.  Coefficient  Atom+Function         Bfn.  Coefficient  Atom+Function  
  ----- ------------  ---------------      ----- ------------  ---------------
    43      0.153835   9 C  s                57     -0.153835  10 C  s         
    71      0.153835  11 C  s                85     -0.153835  12 C  s         
    99      0.153835  13 C  s               113     -0.153835  14 C  s         
   127      0.153835  15 C  s               141     -0.153835  16 C  s         

 Vector   15  Occ=2.000000D+00  E=-7.658639D-01  Symmetry=b1g
              MO Center= -9.8D-18,  9.2D-17, -6.0D-17, r^2= 4.1D+00
   Bfn.  Coefficient  Atom+Function         Bfn.  Coefficient  Atom+Function  
  ----- ------------  ---------------      ----- ------------  ---------------
    43      0.153835   9 C  s                57      0.153835  10 C  s         
    71     -0.153835  11 C  s                85     -0.153835  12 C  s         
    99      0.153835  13 C  s               113      0.153835  14 C  s         
   127     -0.153835  15 C  s               141     -0.153835  16 C  s         

 Vector   16  Occ=2.000000D+00  E=-7.039997D-01  Symmetry=ag
              MO Center= -3.4D-17,  6.2D-17,  9.1D-17, r^2= 4.4D+00
   Bfn.  Coefficient  Atom+Function         Bfn.  Coefficient  Atom+Function  
  ----- ------------  ---------------      ----- ------------  ---------------
     1      0.132588   1 H  s                 6      0.132588   2 H  s         
    11      0.132588   3 H  s                16      0.132588   4 H  s         
    21      0.132588   5 H  s                26      0.132588   6 H  s         
    31      0.132588   7 H  s                36      0.132588   8 H  s         

 Vector   17  Occ=2.000000D+00  E=-6.394247D-01  Symmetry=au
              MO Center= -2.7D-16,  1.8D-17, -5.2D-17, r^2= 5.2D+00
   Bfn.  Coefficient  Atom+Function         Bfn.  Coefficient  Atom+Function  
  ----- ------------  ---------------      ----- ------------  ---------------
     1      0.154931   1 H  s                 6      0.154931   2 H  s         
    11      0.154931   3 H  s                16      0.154931   4 H  s         
    21     -0.154931   5 H  s                26     -0.154931   6 H  s         
    31     -0.154931   7 H  s                36     -0.154931   8 H  s         

 Vector   18  Occ=2.000000D+00  E=-5.764464D-01  Symmetry=b2u
              MO Center=  4.9D-17, -6.3D-16,  5.9D-18, r^2= 4.3D+00
   Bfn.  Coefficient  Atom+Function         Bfn.  Coefficient  Atom+Function  
  ----- ------------  ---------------      ----- ------------  ---------------
     1      0.139769   1 H  s                 6     -0.139769   2 H  s         
    11      0.139769   3 H  s                16     -0.139769   4 H  s         
    21     -0.139769   5 H  s                26      0.139769   6 H  s         
    31     -0.139769   7 H  s                36      0.139769   8 H  s         

 Vector   19  Occ=2.000000D+00  E=-5.764464D-01  Symmetry=b3u
              MO Center=  3.1D-16,  1.5D-16, -7.2D-17, r^2= 4.3D+00
   Bfn.  Coefficient  Atom+Function         Bfn.  Coefficient  Atom+Function  
  ----- ------------  ---------------      ----- ------------  ---------------
     1      0.139769   1 H  s                 6     -0.139769   2 H  s         
    11     -0.139769   3 H  s                16      0.139769   4 H  s         
    21     -0.139769   5 H  s                26      0.139769   6 H  s         
    31      0.139769   7 H  s                36     -0.139769   8 H  s         

 Vector   20  Occ=2.000000D+00  E=-5.764464D-01  Symmetry=b1u
              MO Center=  2.0D-16,  2.6D-17, -4.8D-17, r^2= 4.3D+00
   Bfn.  Coefficient  Atom+Function         Bfn.  Coefficient  Atom+Function  
  ----- ------------  ---------------      ----- ------------  ---------------
     1      0.139769   1 H  s                 6      0.139769   2 H  s         
    11     -0.139769   3 H  s                16     -0.139769   4 H  s         
    21     -0.139769   5 H  s                26     -0.139769   6 H  s         
    31      0.139769   7 H  s                36      0.139769   8 H  s         

 Vector   21  Occ=2.000000D+00  E=-5.744487D-01  Symmetry=ag
              MO Center= -6.0D-16,  7.3D-16,  9.4D-17, r^2= 2.6D+00
   Bfn.  Coefficient  Atom+Function         Bfn.  Coefficient  Atom+Function  
  ----- ------------  ---------------      ----- ------------  ---------------
    46      0.168147   9 C  pz               60      0.168147  10 C  pz        
    74     -0.168147  11 C  pz               88     -0.168147  12 C  pz        
   102     -0.168147  13 C  pz              116     -0.168147  14 C  pz        
   130      0.168147  15 C  pz              144      0.168147  16 C  pz        

 Vector   22  Occ=2.000000D+00  E=-5.744487D-01  Symmetry=ag
              MO Center= -1.3D-16, -6.1D-18, -6.0D-17, r^2= 2.6D+00
   Bfn.  Coefficient  Atom+Function         Bfn.  Coefficient  Atom+Function  
  ----- ------------  ---------------      ----- ------------  ---------------
    44      0.145615   9 C  px               45     -0.145625   9 C  py        
    58     -0.145615  10 C  px               59      0.145625  10 C  py        
    72     -0.145615  11 C  px               73     -0.145625  11 C  py        
    86      0.145615  12 C  px               87      0.145625  12 C  py        
   100     -0.145615  13 C  px              101      0.145625  13 C  py        

 Vector   23  Occ=2.000000D+00  E=-3.891498D-01  Symmetry=b2u
              MO Center= -4.8D-17, -8.8D-17,  3.9D-17, r^2= 2.9D+00
   Bfn.  Coefficient  Atom+Function         Bfn.  Coefficient  Atom+Function  
  ----- ------------  ---------------      ----- ------------  ---------------
    44      0.162234   9 C  px               46     -0.162234   9 C  pz        
    58      0.162234  10 C  px               60      0.162234  10 C  pz        
    72     -0.162234  11 C  px               74      0.162234  11 C  pz        
    86     -0.162234  12 C  px               88     -0.162234  12 C  pz        
   100      0.162234  13 C  px              102     -0.162234  13 C  pz        

 Vector   24  Occ=2.000000D+00  E=-3.891498D-01  Symmetry=b3u
              MO Center=  1.7D-17,  6.1D-18,  5.7D-17, r^2= 2.9D+00
   Bfn.  Coefficient  Atom+Function         Bfn.  Coefficient  Atom+Function  
  ----- ------------  ---------------      ----- ------------  ---------------
    45      0.162234   9 C  py               46     -0.162234   9 C  pz        
    59      0.162234  10 C  py               60      0.162234  10 C  pz        
    73     -0.162234  11 C  py               74     -0.162234  11 C  pz        
    87     -0.162234  12 C  py               88      0.162234  12 C  pz        
   101      0.162234  13 C  py              102     -0.162234  13 C  pz        

 Vector   25  Occ=2.000000D+00  E=-3.891498D-01  Symmetry=b1u
              MO Center= -4.2D-17, -4.9D-17, -9.8D-17, r^2= 2.9D+00
   Bfn.  Coefficient  Atom+Function         Bfn.  Coefficient  Atom+Function  
  ----- ------------  ---------------      ----- ------------  ---------------
    44      0.162234   9 C  px               45     -0.162234   9 C  py        
    58     -0.162234  10 C  px               59      0.162234  10 C  py        
    72      0.162234  11 C  px               73      0.162234  11 C  py        
    86     -0.162234  12 C  px               87     -0.162234  12 C  py        
   100      0.162234  13 C  px              101     -0.162234  13 C  py        

 Vector   26  Occ=2.000000D+00  E=-3.841265D-01  Symmetry=b3g
              MO Center=  1.4D-16, -3.4D-16, -1.3D-16, r^2= 3.6D+00
   Bfn.  Coefficient  Atom+Function         Bfn.  Coefficient  Atom+Function  
  ----- ------------  ---------------      ----- ------------  ---------------
    44      0.208627   9 C  px               58      0.208627  10 C  px        
    72      0.208627  11 C  px               86      0.208627  12 C  px        
   100     -0.208627  13 C  px              114     -0.208627  14 C  px        
   128     -0.208627  15 C  px              142     -0.208627  16 C  px        

 Vector   27  Occ=2.000000D+00  E=-3.841265D-01  Symmetry=b2g
              MO Center=  4.1D-17, -9.1D-17, -2.2D-17, r^2= 3.6D+00
   Bfn.  Coefficient  Atom+Function         Bfn.  Coefficient  Atom+Function  
  ----- ------------  ---------------      ----- ------------  ---------------
    45      0.208627   9 C  py               59      0.208627  10 C  py        
    73      0.208627  11 C  py               87      0.208627  12 C  py        
   101     -0.208627  13 C  py              115     -0.208627  14 C  py        
   129     -0.208627  15 C  py              143     -0.208627  16 C  py        

 Vector   28  Occ=2.000000D+00  E=-3.841265D-01  Symmetry=b1g
              MO Center=  1.0D-16, -8.7D-17, -2.1D-16, r^2= 3.6D+00
   Bfn.  Coefficient  Atom+Function         Bfn.  Coefficient  Atom+Function  
  ----- ------------  ---------------      ----- ------------  ---------------
    46      0.208627   9 C  pz               60      0.208627  10 C  pz        
    74      0.208627  11 C  pz               88      0.208627  12 C  pz        
   102     -0.208627  13 C  pz              116     -0.208627  14 C  pz        
   130     -0.208627  15 C  pz              144     -0.208627  16 C  pz        

 Vector   29  Occ=0.000000D+00  E= 1.816594D-01  Symmetry=ag
              MO Center= -6.6D-16,  7.4D-16,  8.1D-16, r^2= 1.0D+01
   Bfn.  Coefficient  Atom+Function         Bfn.  Coefficient  Atom+Function  
  ----- ------------  ---------------      ----- ------------  ---------------
     2      0.681350   1 H  s                 7      0.681350   2 H  s         
    12      0.681350   3 H  s                17      0.681350   4 H  s         
    22      0.681350   5 H  s                27      0.681350   6 H  s         
    32      0.681350   7 H  s                37      0.681350   8 H  s         
    43     -0.550077   9 C  s                57     -0.550077  10 C  s         

 Vector   30  Occ=0.000000D+00  E= 2.026468D-01  Symmetry=b2u
              MO Center=  1.6D-16, -4.7D-16,  5.9D-16, r^2= 7.2D+00
   Bfn.  Coefficient  Atom+Function         Bfn.  Coefficient  Atom+Function  
  ----- ------------  ---------------      ----- ------------  ---------------
    43      0.727382   9 C  s                57     -0.727382  10 C  s         
    71      0.727382  11 C  s                85     -0.727382  12 C  s         
    99     -0.727382  13 C  s               113      0.727382  14 C  s         
   127     -0.727382  15 C  s               141      0.727382  16 C  s         
     2     -0.461665   1 H  s                 7      0.461665   2 H  s         

 Vector   31  Occ=0.000000D+00  E= 2.026468D-01  Symmetry=b3u
              MO Center=  2.3D-15,  2.3D-16, -6.4D-16, r^2= 7.2D+00
   Bfn.  Coefficient  Atom+Function         Bfn.  Coefficient  Atom+Function  
  ----- ------------  ---------------      ----- ------------  ---------------
    43      0.727382   9 C  s                57     -0.727382  10 C  s         
    71     -0.727382  11 C  s                85      0.727382  12 C  s         
    99     -0.727382  13 C  s               113      0.727382  14 C  s         
   127      0.727382  15 C  s               141     -0.727382  16 C  s         
     2     -0.461665   1 H  s                 7      0.461665   2 H  s         

 Vector   32  Occ=0.000000D+00  E= 2.026468D-01  Symmetry=b1u
              MO Center= -3.2D-16,  6.8D-16,  1.7D-15, r^2= 7.2D+00
   Bfn.  Coefficient  Atom+Function         Bfn.  Coefficient  Atom+Function  
  ----- ------------  ---------------      ----- ------------  ---------------
    43      0.727382   9 C  s                57      0.727382  10 C  s         
    71     -0.727382  11 C  s                85     -0.727382  12 C  s         
    99     -0.727382  13 C  s               113     -0.727382  14 C  s         
   127      0.727382  15 C  s               141      0.727382  16 C  s         
     2     -0.461665   1 H  s                 7     -0.461665   2 H  s         

 Vector   33  Occ=0.000000D+00  E= 2.533708D-01  Symmetry=b2g
              MO Center=  1.8D-15,  2.2D-15, -9.8D-16, r^2= 1.2D+01
   Bfn.  Coefficient  Atom+Function         Bfn.  Coefficient  Atom+Function  
  ----- ------------  ---------------      ----- ------------  ---------------
     2      0.955334   1 H  s                 7     -0.955334   2 H  s         
    12      0.955334   3 H  s                17     -0.955334   4 H  s         
    22      0.955334   5 H  s                27     -0.955334   6 H  s         
    32      0.955334   7 H  s                37     -0.955334   8 H  s         
    48     -0.501901   9 C  py               62     -0.501901  10 C  py        

 Vector   34  Occ=0.000000D+00  E= 2.533708D-01  Symmetry=b3g
              MO Center=  2.1D-15,  2.8D-15, -1.3D-15, r^2= 1.2D+01
   Bfn.  Coefficient  Atom+Function         Bfn.  Coefficient  Atom+Function  
  ----- ------------  ---------------      ----- ------------  ---------------
     2      0.955334   1 H  s                 7     -0.955334   2 H  s         
    12     -0.955334   3 H  s                17      0.955334   4 H  s         
    22      0.955334   5 H  s                27     -0.955334   6 H  s         
    32     -0.955334   7 H  s                37      0.955334   8 H  s         
    47     -0.501901   9 C  px               61     -0.501901  10 C  px        

 Vector   35  Occ=0.000000D+00  E= 2.533708D-01  Symmetry=b1g
              MO Center= -8.4D-16,  1.3D-15,  1.6D-15, r^2= 1.2D+01
   Bfn.  Coefficient  Atom+Function         Bfn.  Coefficient  Atom+Function  
  ----- ------------  ---------------      ----- ------------  ---------------
     2      0.955334   1 H  s                 7      0.955334   2 H  s         
    12     -0.955334   3 H  s                17     -0.955334   4 H  s         
    22      0.955334   5 H  s                27      0.955334   6 H  s         
    32     -0.955334   7 H  s                37     -0.955334   8 H  s         
    49     -0.501901   9 C  pz               63     -0.501901  10 C  pz        

 Vector   36  Occ=0.000000D+00  E= 2.569151D-01  Symmetry=b2u
              MO Center=  5.3D-15, -7.7D-16, -7.5D-16, r^2= 8.5D+00
   Bfn.  Coefficient  Atom+Function         Bfn.  Coefficient  Atom+Function  
  ----- ------------  ---------------      ----- ------------  ---------------
     2      0.735595   1 H  s                 7     -0.735595   2 H  s         
    12      0.735595   3 H  s                17     -0.735595   4 H  s         
    22     -0.735595   5 H  s                27      0.735595   6 H  s         
    32     -0.735595   7 H  s                37      0.735595   8 H  s         
    48     -0.605544   9 C  py               62     -0.605544  10 C  py        

 Vector   37  Occ=0.000000D+00  E= 2.569151D-01  Symmetry=b3u
              MO Center=  4.6D-16,  7.6D-16,  7.0D-16, r^2= 8.5D+00
   Bfn.  Coefficient  Atom+Function         Bfn.  Coefficient  Atom+Function  
  ----- ------------  ---------------      ----- ------------  ---------------
     2      0.735595   1 H  s                 7     -0.735595   2 H  s         
    12     -0.735595   3 H  s                17      0.735595   4 H  s         
    22     -0.735595   5 H  s                27      0.735595   6 H  s         
    32      0.735595   7 H  s                37     -0.735595   8 H  s         
    47     -0.605544   9 C  px               61     -0.605544  10 C  px        

 Vector   38  Occ=0.000000D+00  E= 2.569151D-01  Symmetry=b1u
              MO Center= -3.3D-15,  2.2D-15,  4.0D-15, r^2= 8.5D+00
   Bfn.  Coefficient  Atom+Function         Bfn.  Coefficient  Atom+Function  
  ----- ------------  ---------------      ----- ------------  ---------------
     2      0.735595   1 H  s                 7      0.735595   2 H  s         
    12     -0.735595   3 H  s                17     -0.735595   4 H  s         
    22     -0.735595   5 H  s                27     -0.735595   6 H  s         
    32      0.735595   7 H  s                37      0.735595   8 H  s         
    49     -0.605544   9 C  pz               63     -0.605544  10 C  pz        

 Vector   39  Occ=0.000000D+00  E= 2.640112D-01  Symmetry=au
              MO Center=  8.7D-15,  6.1D-15,  8.0D-15, r^2= 1.3D+01
   Bfn.  Coefficient  Atom+Function         Bfn.  Coefficient  Atom+Function  
  ----- ------------  ---------------      ----- ------------  ---------------
    43      1.495548   9 C  s                57      1.495548  10 C  s         
    71      1.495548  11 C  s                85      1.495548  12 C  s         
    99     -1.495548  13 C  s               113     -1.495548  14 C  s         
   127     -1.495548  15 C  s               141     -1.495548  16 C  s         
     2      1.293406   1 H  s                 7      1.293406   2 H  s         

 Vector   40  Occ=0.000000D+00  E= 3.683896D-01  Symmetry=b1g
              MO Center=  1.9D-16, -5.8D-16,  7.3D-17, r^2= 4.5D+00
   Bfn.  Coefficient  Atom+Function         Bfn.  Coefficient  Atom+Function  
  ----- ------------  ---------------      ----- ------------  ---------------
    47      0.579247   9 C  px               48     -0.579247   9 C  py        
    61     -0.579247  10 C  px               62      0.579247  10 C  py        
    75      0.579247  11 C  px               76      0.579247  11 C  py        
    89     -0.579247  12 C  px               90     -0.579247  12 C  py        
   103     -0.579247  13 C  px              104      0.579247  13 C  py        

 Vector   41  Occ=0.000000D+00  E= 3.683896D-01  Symmetry=b3g
              MO Center= -4.2D-18, -7.7D-17, -1.4D-16, r^2= 4.5D+00
   Bfn.  Coefficient  Atom+Function         Bfn.  Coefficient  Atom+Function  
  ----- ------------  ---------------      ----- ------------  ---------------
    48      0.579247   9 C  py               49     -0.579247   9 C  pz        
    62      0.579247  10 C  py               63      0.579247  10 C  pz        
    76     -0.579247  11 C  py               77     -0.579247  11 C  pz        
    90     -0.579247  12 C  py               91      0.579247  12 C  pz        
   104     -0.579247  13 C  py              105      0.579247  13 C  pz        

 Vector   42  Occ=0.000000D+00  E= 3.683896D-01  Symmetry=b2g
              MO Center= -3.0D-16,  1.3D-16,  2.7D-16, r^2= 4.5D+00
   Bfn.  Coefficient  Atom+Function         Bfn.  Coefficient  Atom+Function  
  ----- ------------  ---------------      ----- ------------  ---------------
    47      0.579247   9 C  px               49     -0.579247   9 C  pz        
    61      0.579247  10 C  px               63      0.579247  10 C  pz        
    75     -0.579247  11 C  px               77      0.579247  11 C  pz        
    89     -0.579247  12 C  px               91     -0.579247  12 C  pz        
   103     -0.579247  13 C  px              105      0.579247  13 C  pz        

 Vector   43  Occ=0.000000D+00  E= 4.469818D-01  Symmetry=b3g
              MO Center= -3.4D-15, -1.4D-15,  1.5D-15, r^2= 6.4D+00
   Bfn.  Coefficient  Atom+Function         Bfn.  Coefficient  Atom+Function  
  ----- ------------  ---------------      ----- ------------  ---------------
    43      1.776677   9 C  s                57     -1.776677  10 C  s         
    71     -1.776677  11 C  s                85      1.776677  12 C  s         
    99      1.776677  13 C  s               113     -1.776677  14 C  s         
   127     -1.776677  15 C  s               141      1.776677  16 C  s         
    48     -1.085264   9 C  py               49     -1.085264   9 C  pz        

 Vector   44  Occ=0.000000D+00  E= 4.469818D-01  Symmetry=b2g
              MO Center= -1.1D-15, -4.0D-15,  9.8D-16, r^2= 6.4D+00
   Bfn.  Coefficient  Atom+Function         Bfn.  Coefficient  Atom+Function  
  ----- ------------  ---------------      ----- ------------  ---------------
    43      1.776677   9 C  s                57     -1.776677  10 C  s         
    71      1.776677  11 C  s                85     -1.776677  12 C  s         
    99      1.776677  13 C  s               113     -1.776677  14 C  s         
   127      1.776677  15 C  s               141     -1.776677  16 C  s         
    47     -1.085264   9 C  px               49     -1.085264   9 C  pz        

 Vector   45  Occ=0.000000D+00  E= 4.469818D-01  Symmetry=b1g
              MO Center= -4.0D-15,  4.2D-15,  1.8D-15, r^2= 6.4D+00
   Bfn.  Coefficient  Atom+Function         Bfn.  Coefficient  Atom+Function  
  ----- ------------  ---------------      ----- ------------  ---------------
    43      1.776677   9 C  s                57      1.776677  10 C  s         
    71     -1.776677  11 C  s                85     -1.776677  12 C  s         
    99      1.776677  13 C  s               113      1.776677  14 C  s         
   127     -1.776677  15 C  s               141     -1.776677  16 C  s         
    47     -1.085264   9 C  px               48     -1.085264   9 C  py        

 Vector   46  Occ=0.000000D+00  E= 4.941472D-01  Symmetry=ag
              MO Center= -1.9D-14,  2.2D-14,  2.0D-14, r^2= 5.8D+00
   Bfn.  Coefficient  Atom+Function         Bfn.  Coefficient  Atom+Function  
  ----- ------------  ---------------      ----- ------------  ---------------
     1      0.308571   1 H  s                 6      0.308571   2 H  s         
    11      0.308571   3 H  s                16      0.308571   4 H  s         
    21      0.308571   5 H  s                26      0.308571   6 H  s         
    31      0.308571   7 H  s                36      0.308571   8 H  s         
     2     -0.249135   1 H  s                 7     -0.249135   2 H  s         

 Vector   47  Occ=0.000000D+00  E= 5.194780D-01  Symmetry=au
              MO Center=  4.1D-16, -1.9D-15,  6.1D-16, r^2= 5.0D+00
   Bfn.  Coefficient  Atom+Function         Bfn.  Coefficient  Atom+Function  
  ----- ------------  ---------------      ----- ------------  ---------------
    49      1.184807   9 C  pz               63      1.184807  10 C  pz        
    77     -1.184807  11 C  pz               91     -1.184807  12 C  pz        
   105      1.184807  13 C  pz              119      1.184807  14 C  pz        
   133     -1.184807  15 C  pz              147     -1.184807  16 C  pz        
    47     -0.594330   9 C  px               61      0.594330  10 C  px        


 center of mass
 --------------
 x =   0.00000000 y =   0.00000000 z =   0.00000000

 moments of inertia (a.u.)
 ------------------
         544.409186343040           0.000000000000           0.000000000000
           0.000000000000         544.409186343040           0.000000000000
           0.000000000000           0.000000000000         544.409186343040

  Mulliken analysis of the total density
  --------------------------------------

    Atom       Charge   Shell Charges
 -----------   ------   -------------------------------------------------------
    1 H    1     1.00   0.75  0.21  0.03
    2 H    1     1.00   0.75  0.21  0.03
    3 H    1     1.00   0.75  0.21  0.03
    4 H    1     1.00   0.75  0.21  0.03
    5 H    1     1.00   0.75  0.21  0.03
    6 H    1     1.00   0.75  0.21  0.03
    7 H    1     1.00   0.75  0.21  0.03
    8 H    1     1.00   0.75  0.21  0.03
    9 C    6     6.00   2.01  0.63  0.57  1.98  0.73  0.09
   10 C    6     6.00   2.01  0.63  0.57  1.98  0.73  0.09
   11 C    6     6.00   2.01  0.63  0.57  1.98  0.73  0.09
   12 C    6     6.00   2.01  0.63  0.57  1.98  0.73  0.09
   13 C    6     6.00   2.01  0.63  0.57  1.98  0.73  0.09
   14 C    6     6.00   2.01  0.63  0.57  1.98  0.73  0.09
   15 C    6     6.00   2.01  0.63  0.57  1.98  0.73  0.09
   16 C    6     6.00   2.01  0.63  0.57  1.98  0.73  0.09

       Multipole analysis of the density wrt the origin
       ------------------------------------------------

     L   x y z        total         open         nuclear
     -   - - -        -----         ----         -------
     0   0 0 0     -0.000000      0.000000     56.000000

     1   1 0 0      0.000000      0.000000      0.000000
     1   0 1 0      0.000000      0.000000      0.000000
     1   0 0 1      0.000000      0.000000      0.000000

     2   2 0 0    -35.237545      0.000000    164.881295
     2   1 1 0     -0.000000      0.000000      0.000000
     2   1 0 1      0.000000      0.000000      0.000000
     2   0 2 0    -35.237545      0.000000    164.881295
     2   0 1 1     -0.000000      0.000000      0.000000
     2   0 0 2    -35.237545      0.000000    164.881295

                   NWChem Extensible Many-Electron Theory Module
                   ---------------------------------------------

              ======================================================
                   This portion of the program was automatically
                  generated by a Tensor Contraction Engine (TCE).
                  The development of this portion of the program
                 and TCE was supported by US Department of Energy,
                Office of Science, Office of Basic Energy Science.
                      TCE is a product of Battelle and PNNL.
              Please cite: S.Hirata, J.Phys.Chem.A 107, 9887 (2003).
              ======================================================

                           cubane CCSD/cc-pVDZ optimize


            General Information
            -------------------
      Number of processors :     1
         Wavefunction type : Restricted Hartree-Fock
          No. of electrons :    56
           Alpha electrons :    28
            Beta electrons :    28
           No. of orbitals :   304
            Alpha orbitals :   152
             Beta orbitals :   152
        Alpha frozen cores :     8
         Beta frozen cores :     8
     Alpha frozen virtuals :     0
      Beta frozen virtuals :     0
         Spin multiplicity : singlet 
    Number of AO functions :   152
       Number of AO shells :    72
        Use of symmetry is : on 
      Symmetry adaption is : on 
         Schwarz screening : 0.10D-09

          Correlation Information
          -----------------------
          Calculation type : Coupled-cluster singles & doubles                           
   Perturbative correction : none                                                        
            Max iterations :      100
        Residual threshold : 0.10D-06
     T(0) DIIS level shift : 0.00D+00
     L(0) DIIS level shift : 0.00D+00
     T(1) DIIS level shift : 0.00D+00
     L(1) DIIS level shift : 0.00D+00
     T(R) DIIS level shift : 0.00D+00
     T(I) DIIS level shift : 0.00D+00
   CC-T/L Amplitude update :  5-th order DIIS
                I/O scheme : Global Array Library
        L-threshold : 0.10D-06
        EOM-threshold : 0.10D-06
 no EOMCCSD initial starts read in
 TCE RESTART OPTIONS
 READ_INT:   F
 WRITE_INT:  F
 READ_TA:    F
 WRITE_TA:   F
 READ_XA:    F
 WRITE_XA:   F
 READ_IN3:   F
 WRITE_IN3:  F
 SLICE:      F
 XMEM:                          0
 D4D5:       F

            Memory Information
            ------------------
          Available GA space size is     262120896 doubles
          Available MA space size is      26204428 doubles

 Maximum block size        36 doubles

 tile_dim =     17

 Block   Spin    Irrep     Size     Offset   Alpha
 -------------------------------------------------
   1    alpha     ag     4 doubles       0       1
   2    alpha     au     1 doubles       4       2
   3    alpha     b1g    2 doubles       5       3
   4    alpha     b1u    3 doubles       7       4
   5    alpha     b2g    2 doubles      10       5
   6    alpha     b2u    3 doubles      12       6
   7    alpha     b3g    2 doubles      15       7
   8    alpha     b3u    3 doubles      17       8
   9    beta      ag     4 doubles      20       1
  10    beta      au     1 doubles      24       2
  11    beta      b1g    2 doubles      25       3
  12    beta      b1u    3 doubles      27       4
  13    beta      b2g    2 doubles      30       5
  14    beta      b2u    3 doubles      32       6
  15    beta      b3g    2 doubles      35       7
  16    beta      b3u    3 doubles      37       8
  17    alpha     ag    14 doubles      40      17
  18    alpha     au    17 doubles      54      18
  19    alpha     b1g   16 doubles      71      19
  20    alpha     b1u   15 doubles      87      20
  21    alpha     b2g   16 doubles     102      21
  22    alpha     b2u   15 doubles     118      22
  23    alpha     b3g   16 doubles     133      23
  24    alpha     b3u   15 doubles     149      24
  25    beta      ag    14 doubles     164      17
  26    beta      au    17 doubles     178      18
  27    beta      b1g   16 doubles     195      19
  28    beta      b1u   15 doubles     211      20
  29    beta      b2g   16 doubles     226      21
  30    beta      b2u   15 doubles     242      22
  31    beta      b3g   16 doubles     257      23
  32    beta      b3u   15 doubles     273      24

 Global array virtual files algorithm will be used

 Parallel file system coherency ......... OK

 Fock matrix recomputed
 1-e file size   =             2592
 1-e file name   = /mnt/scratch/cubane.
 Cpu & wall time / sec           37.6           38.1
 4-electron integrals stored in orbital form

 v2    file size   =          9597934
 4-index algorithm nr.   5 is used
 imaxsize =       30
 imaxsize ichop =        0
 2_EL_BATCH AND COEFF MATRIX
 size_ic              2371843
 size_icc                  561
 tile_dim                   17
 max_na                   33
 INTERMEDIATE FILES
 size_4af            192709924
 size_3a1mf            303849216
 size_2a2mf            157699520
 size_1a3mf            248647680
 size_2e              9597934
 before sf_create
 after sf_create
 STEP2 4index
 STEP3 4index
 STEP3 test
 STEP4 4index
 STEP5 4index
 DONE --- DONE ---- DONE ---- DONE
 Cpu & wall time / sec          490.6          796.4
 do_pt =  F
 do_lam_pt =  F
 do_cr_pt =  F
 do_lcr_pt =  F
 do_2t_pt =  F
 T1-number-of-tasks                    8

 t1 file size   =              304
 t1 file name   = /mnt/scratch/cubane.
 t1 file handle =       -998
 T2-number-of-boxes                  688

 t2 file size   =          1042096
 t2 file name   = /mnt/scratch/cubane.
 t2 file handle =       -996

 CCSD iterations
 -----------------------------------------------------------------
 Iter          Residuum       Correlation     Cpu    Wall    V2*C2
 -----------------------------------------------------------------
    1   0.2546851706662  -1.0714465331575    31.8    31.7    12.0
    2   0.0708036201492  -1.1008384811887    31.6    28.9    12.0
    3   0.0273560262958  -1.1235313340753    31.0    28.8    11.8
    4   0.0119332934634  -1.1274160377198    31.6    29.0    12.1
    5   0.0056748646288  -1.1294306096489    31.4    28.8    11.9
 MICROCYCLE DIIS UPDATE:                    5                    5
    6   0.0013169510013  -1.1304956279918    31.7    28.9    12.0
    7   0.0004893796502  -1.1307125324841    31.4    28.9    11.9
    8   0.0002505909329  -1.1306984965161    31.4    28.8    11.9
    9   0.0001200738792  -1.1307017017755    31.6    28.9    11.9
   10   0.0000656813802  -1.1307038683408    31.4    28.8    12.0
 MICROCYCLE DIIS UPDATE:                   10                    5
   11   0.0000117999348  -1.1307052363526    31.6    28.9    11.9
   12   0.0000043198047  -1.1307070365737    31.6    28.8    12.0
   13   0.0000018570293  -1.1307076769624    31.5    28.7    11.9
   14   0.0000008984307  -1.1307078282457    31.1    28.7    11.9
   15   0.0000004370603  -1.1307078926298    31.7    28.9    12.0
 MICROCYCLE DIIS UPDATE:                   15                    5
   16   0.0000001255336  -1.1307079312203    31.5    28.8    12.1
   17   0.0000000481000  -1.1307079420386    31.5    28.6    12.0
 -----------------------------------------------------------------
 Iterations converged
 CCSD correlation energy / hartree =        -1.130707942038551
 CCSD total energy / hartree       =      -308.543106245432057

 Singles contributions

 Doubles contributions
 Reference energy        -308.54310625


 Saving state for tce with suffix numg
        /mnt/scratch/cubane.movecs

 Finite difference step  1.00000D-02
 Use five point formula F

                                 NWChem SCF Module
                                 -----------------


                           cubane CCSD/cc-pVDZ optimize



  ao basis        = "ao basis"
  functions       =   152
  atoms           =    16
  closed shells   =    28
  open shells     =     0
  charge          =   0.00
  wavefunction    = RHF 
  input vectors   = /mnt/scratch/cubane.movecs
  output vectors  = /mnt/scratch/cubane.movecs
  use symmetry    = T
  symmetry adapt  = T


 Summary of "ao basis" -> "ao basis" (spherical)
 ------------------------------------------------------------------------------
       Tag                 Description            Shells   Functions and Types
 ---------------- ------------------------------  ------  ---------------------
 H                          cc-pVDZ                  3        5   2s1p
 C                          cc-pVDZ                  6       14   3s2p1d


      Symmetry analysis of basis
      --------------------------

        ag         19
        au         19
        b1g        19
        b1u        19
        b2g        19
        b2u        19
        b3g        19
        b3u        19


 Forming initial guess at    1386.2s


 Loading old vectors from job with title :

cubane CCSD/cc-pVDZ optimize


      Symmetry analysis of molecular orbitals - initial
      -------------------------------------------------

  Numbering of irreducible representations: 

     1 ag          2 au          3 b1g         4 b1u         5 b2g     
     6 b2u         7 b3g         8 b3u     

  Orbital symmetries:

     1 ag          2 b3u         3 b2u         4 b1u         5 b3g     
     6 b2g         7 b1g         8 au          9 ag         10 b1u     
    11 b2u        12 b3u        13 b3g        14 b2g        15 b1g     
    16 ag         17 au         18 b2u        19 b3u        20 b1u     
    21 ag         22 ag         23 b2u        24 b3u        25 b1u     
    26 b3g        27 b2g        28 b1g        29 ag         30 b2u     
    31 b3u        32 b1u        33 b2g        34 b3g        35 b1g     
    36 b2u        37 b3u        38 b1u     


 Starting SCF solution at    1386.4s



 ----------------------------------------------
         Quadratically convergent ROHF

 Convergence threshold     :          1.000E-04
 Maximum no. of iterations :           30
 Final Fock-matrix accuracy:          1.000E-07
 ----------------------------------------------


              iter       energy          gnorm     gmax       time
             ----- ------------------- --------- --------- --------
                 1     -307.4122399217  5.21D-03  1.07D-03   1126.1
                 2     -307.4122424807  1.93D-05  4.70D-06   1152.2


       Final RHF  results 
       ------------------ 

         Total SCF energy =   -307.412242480702
      One-electron energy =  -1138.342416995794
      Two-electron energy =    466.333540250435
 Nuclear repulsion energy =    364.596634264657

        Time for solution =     31.4s



       Symmetry analysis of molecular orbitals - final
       -----------------------------------------------

  Numbering of irreducible representations: 

     1 ag          2 au          3 b1g         4 b1u         5 b2g     
     6 b2u         7 b3g         8 b3u     

  Orbital symmetries:

     1 ag          2 b3u         3 b2u         4 b1u         5 b2g     
     6 b1g         7 b3g         8 au          9 ag         10 b3u     
    11 b1u        12 b2u        13 b1g        14 b2g        15 b3g     
    16 ag         17 au         18 b2u        19 b1u        20 b3u     
    21 ag         22 ag         23 b3u        24 b2u        25 b1u     
    26 b3g        27 b2g        28 b1g        29 ag         30 b3u     
    31 b2u        32 b1u        33 b2g        34 b1g        35 b3g     
    36 b2u        37 b1u        38 b3u     

             Final eigenvalues
             -----------------

              1      
    1  -11.2303
    2  -11.2298
    3  -11.2298
    4  -11.2298
    5  -11.2293
    6  -11.2293
    7  -11.2293
    8  -11.2288
    9   -1.2378
   10   -0.9755
   11   -0.9754
   12   -0.9754
   13   -0.7657
   14   -0.7657
   15   -0.7655
   16   -0.7037
   17   -0.6390
   18   -0.5763
   19   -0.5763
   20   -0.5761
   21   -0.5745
   22   -0.5745
   23   -0.3892
   24   -0.3892
   25   -0.3892
   26   -0.3843
   27   -0.3840
   28   -0.3840
   29    0.1814
   30    0.2025
   31    0.2027
   32    0.2027
   33    0.2532
   34    0.2532
   35    0.2535
   36    0.2568
   37    0.2568
   38    0.2568

                       ROHF Final Molecular Orbital Analysis
                       -------------------------------------

 Vector    9  Occ=2.000000D+00  E=-1.237768D+00  Symmetry=ag
              MO Center=  1.8D-17, -2.9D-17, -3.8D-17, r^2= 1.7D+00
   Bfn.  Coefficient  Atom+Function         Bfn.  Coefficient  Atom+Function  
  ----- ------------  ---------------      ----- ------------  ---------------
    42      0.134735   9 C  s                56      0.134735  10 C  s         
    70      0.134735  11 C  s                84      0.134735  12 C  s         
    98      0.134735  13 C  s               112      0.134735  14 C  s         
   126      0.134735  15 C  s               140      0.134735  16 C  s         

 Vector   10  Occ=2.000000D+00  E=-9.754717D-01  Symmetry=b3u
              MO Center=  9.2D-19,  1.6D-17, -1.8D-17, r^2= 2.6D+00
   Bfn.  Coefficient  Atom+Function         Bfn.  Coefficient  Atom+Function  
  ----- ------------  ---------------      ----- ------------  ---------------
    42      0.137531   9 C  s                56     -0.137531  10 C  s         
[...]
   52 Bend                    10    13    12                90.00000    0.00000
   53 Bend                    10    15    12                90.00000    0.00000
   54 Bend                    10    16    11                90.00000    0.00000
   55 Bend                    11    13    12                90.00000    0.00000
   56 Bend                    11    14    12                90.00000    0.00000
   57 Bend                    13    10    15                90.00000    0.00000
   58 Bend                    13    10    16                90.00000    0.00000
   59 Bend                    13    11    14                90.00000    0.00000
   60 Bend                    13    11    16                90.00000    0.00000
   61 Bend                    13    12    14                90.00000    0.00000
   62 Bend                    13    12    15                90.00000    0.00000
   63 Bend                    14     9    15                90.00000    0.00000
   64 Bend                    14     9    16                90.00000    0.00000
   65 Bend                    14    11    16                90.00000    0.00000
   66 Bend                    14    12    15                90.00000    0.00000
   67 Bend                    15     9    16                90.00000    0.00000
   68 Bend                    15    10    16                90.00000    0.00000
   69 Torsion                  1     9    14     6           0.00000    0.00000
   70 Torsion                  1     9    14    11        -135.00000    0.00000
   71 Torsion                  1     9    14    12         135.00000    0.00000
   72 Torsion                  1     9    15     7           0.00000    0.00000
   73 Torsion                  1     9    15    10         135.00000   -0.00000
   74 Torsion                  1     9    15    12        -135.00000   -0.00000
   75 Torsion                  1     9    16     8           0.00000    0.00000
   76 Torsion                  1     9    16    10        -135.00000    0.00000
   77 Torsion                  1     9    16    11         135.00000    0.00000
   78 Torsion                  2    10    13     5           0.00000    0.00000
   79 Torsion                  2    10    13    11         135.00000    0.00000
   80 Torsion                  2    10    13    12        -135.00000    0.00000
   81 Torsion                  2    10    15     7           0.00000    0.00000
   82 Torsion                  2    10    15     9        -135.00000    0.00000
   83 Torsion                  2    10    15    12         135.00000    0.00000
   84 Torsion                  2    10    16     8           0.00000    0.00000
   85 Torsion                  2    10    16     9         135.00000   -0.00000
   86 Torsion                  2    10    16    11        -135.00000   -0.00000
   87 Torsion                  3    11    13     5           0.00000    0.00000
   88 Torsion                  3    11    13    10        -135.00000   -0.00000
   89 Torsion                  3    11    13    12         135.00000   -0.00000
   90 Torsion                  3    11    14     6           0.00000    0.00000
   91 Torsion                  3    11    14     9         135.00000    0.00000
   92 Torsion                  3    11    14    12        -135.00000    0.00000
   93 Torsion                  3    11    16     8           0.00000    0.00000
   94 Torsion                  3    11    16     9        -135.00000    0.00000
   95 Torsion                  3    11    16    10         135.00000    0.00000
   96 Torsion                  4    12    13     5           0.00000    0.00000
   97 Torsion                  4    12    13    10         135.00000    0.00000
   98 Torsion                  4    12    13    11        -135.00000    0.00000
   99 Torsion                  4    12    14     6           0.00000    0.00000
  100 Torsion                  4    12    14     9        -135.00000   -0.00000
  101 Torsion                  4    12    14    11         135.00000   -0.00000
  102 Torsion                  4    12    15     7           0.00000    0.00000
  103 Torsion                  4    12    15     9         135.00000    0.00000
  104 Torsion                  4    12    15    10        -135.00000    0.00000
  105 Torsion                  5    13    10    15         135.00000   -0.00000
  106 Torsion                  5    13    10    16        -135.00000   -0.00000
  107 Torsion                  5    13    11    14        -135.00000    0.00000
  108 Torsion                  5    13    11    16         135.00000    0.00000
  109 Torsion                  5    13    12    14         135.00000   -0.00000
  110 Torsion                  5    13    12    15        -135.00000   -0.00000
  111 Torsion                  6    14     9    15        -135.00000   -0.00000
  112 Torsion                  6    14     9    16         135.00000   -0.00000
  113 Torsion                  6    14    11    13         135.00000   -0.00000
  114 Torsion                  6    14    11    16        -135.00000   -0.00000
  115 Torsion                  6    14    12    13        -135.00000    0.00000
  116 Torsion                  6    14    12    15         135.00000    0.00000
  117 Torsion                  7    15     9    14         135.00000    0.00000
  118 Torsion                  7    15     9    16        -135.00000    0.00000
  119 Torsion                  7    15    10    13        -135.00000   -0.00000
  120 Torsion                  7    15    10    16         135.00000   -0.00000
  121 Torsion                  7    15    12    13         135.00000   -0.00000
  122 Torsion                  7    15    12    14        -135.00000   -0.00000
  123 Torsion                  8    16     9    14        -135.00000   -0.00000
  124 Torsion                  8    16     9    15         135.00000   -0.00000
  125 Torsion                  8    16    10    13         135.00000    0.00000
  126 Torsion                  8    16    10    15        -135.00000    0.00000
  127 Torsion                  8    16    11    13        -135.00000   -0.00000
  128 Torsion                  8    16    11    14         135.00000   -0.00000
  129 Torsion                  9    14    11    13         -90.00000    0.00000
  130 Torsion                  9    14    11    16           0.00000    0.00000
  131 Torsion                  9    14    12    13          90.00000    0.00000
  132 Torsion                  9    14    12    15           0.00000    0.00000
  133 Torsion                  9    15    10    13          90.00000    0.00000
  134 Torsion                  9    15    10    16           0.00000    0.00000
  135 Torsion                  9    15    12    13         -90.00000    0.00000
  136 Torsion                  9    15    12    14           0.00000    0.00000
  137 Torsion                  9    16    10    13         -90.00000    0.00000
  138 Torsion                  9    16    10    15           0.00000    0.00000
  139 Torsion                  9    16    11    13          90.00000    0.00000
  140 Torsion                  9    16    11    14           0.00000    0.00000
  141 Torsion                 10    13    11    14          90.00000    0.00000
  142 Torsion                 10    13    11    16           0.00000    0.00000
  143 Torsion                 10    13    12    14         -90.00000    0.00000
  144 Torsion                 10    13    12    15           0.00000    0.00000
  145 Torsion                 10    15     9    14         -90.00000    0.00000
  146 Torsion                 10    15     9    16           0.00000    0.00000
  147 Torsion                 10    15    12    13           0.00000    0.00000
  148 Torsion                 10    15    12    14          90.00000    0.00000
  149 Torsion                 10    16     9    14          90.00000    0.00000
  150 Torsion                 10    16     9    15           0.00000    0.00000
  151 Torsion                 10    16    11    13           0.00000    0.00000
  152 Torsion                 10    16    11    14         -90.00000    0.00000
  153 Torsion                 11    13    10    15         -90.00000    0.00000
  154 Torsion                 11    13    10    16           0.00000    0.00000
  155 Torsion                 11    13    12    14           0.00000    0.00000
  156 Torsion                 11    13    12    15          90.00000    0.00000
  157 Torsion                 11    14     9    15          90.00000    0.00000
  158 Torsion                 11    14     9    16           0.00000    0.00000
  159 Torsion                 11    14    12    13           0.00000    0.00000
  160 Torsion                 11    14    12    15         -90.00000    0.00000
  161 Torsion                 11    16     9    14           0.00000    0.00000
  162 Torsion                 11    16     9    15         -90.00000    0.00000
  163 Torsion                 11    16    10    13           0.00000    0.00000
  164 Torsion                 11    16    10    15          90.00000    0.00000
  165 Torsion                 12    13    10    15           0.00000    0.00000
  166 Torsion                 12    13    10    16          90.00000    0.00000
  167 Torsion                 12    13    11    14           0.00000    0.00000
  168 Torsion                 12    13    11    16         -90.00000    0.00000
  169 Torsion                 12    14     9    15           0.00000    0.00000
  170 Torsion                 12    14     9    16         -90.00000    0.00000
  171 Torsion                 12    14    11    13           0.00000    0.00000
  172 Torsion                 12    14    11    16          90.00000    0.00000
  173 Torsion                 12    15     9    14           0.00000    0.00000
  174 Torsion                 12    15     9    16          90.00000    0.00000
  175 Torsion                 12    15    10    13           0.00000    0.00000
  176 Torsion                 12    15    10    16         -90.00000    0.00000

 ==============================================================================
                                internuclear distances
 ------------------------------------------------------------------------------
       center one      |      center two      | atomic units |  angstroms
 ------------------------------------------------------------------------------
    9 C                |   1 H                |     2.07980  |     1.10058
   10 C                |   2 H                |     2.07980  |     1.10058
   11 C                |   3 H                |     2.07980  |     1.10058
   12 C                |   4 H                |     2.07980  |     1.10058
   13 C                |   5 H                |     2.07980  |     1.10058
   13 C                |  10 C                |     2.98431  |     1.57923
   13 C                |  11 C                |     2.98431  |     1.57923
   13 C                |  12 C                |     2.98431  |     1.57923
   14 C                |   6 H                |     2.07980  |     1.10058
   14 C                |   9 C                |     2.98431  |     1.57923
   14 C                |  11 C                |     2.98431  |     1.57923
   14 C                |  12 C                |     2.98431  |     1.57923
   15 C                |   7 H                |     2.07980  |     1.10058
   15 C                |   9 C                |     2.98431  |     1.57923
   15 C                |  10 C                |     2.98431  |     1.57923
   15 C                |  12 C                |     2.98431  |     1.57923
   16 C                |   8 H                |     2.07980  |     1.10058
   16 C                |   9 C                |     2.98431  |     1.57923
   16 C                |  10 C                |     2.98431  |     1.57923
   16 C                |  11 C                |     2.98431  |     1.57923
 ------------------------------------------------------------------------------
                         number of included internuclear distances:         20
 ==============================================================================



 ==============================================================================
                                 internuclear angles
 ------------------------------------------------------------------------------
        center 1       |       center 2       |       center 3       |  degrees
 ------------------------------------------------------------------------------
    1 H                |   9 C                |  14 C                |   125.26
    1 H                |   9 C                |  15 C                |   125.26
    1 H                |   9 C                |  16 C                |   125.26
   14 C                |   9 C                |  15 C                |    90.00
   14 C                |   9 C                |  16 C                |    90.00
   15 C                |   9 C                |  16 C                |    90.00
    2 H                |  10 C                |  13 C                |   125.26
    2 H                |  10 C                |  15 C                |   125.26
    2 H                |  10 C                |  16 C                |   125.26
   13 C                |  10 C                |  15 C                |    90.00
   13 C                |  10 C                |  16 C                |    90.00
   15 C                |  10 C                |  16 C                |    90.00
    3 H                |  11 C                |  13 C                |   125.26
    3 H                |  11 C                |  14 C                |   125.26
    3 H                |  11 C                |  16 C                |   125.26
   13 C                |  11 C                |  14 C                |    90.00
   13 C                |  11 C                |  16 C                |    90.00
   14 C                |  11 C                |  16 C                |    90.00
    4 H                |  12 C                |  13 C                |   125.26
    4 H                |  12 C                |  14 C                |   125.26
    4 H                |  12 C                |  15 C                |   125.26
   13 C                |  12 C                |  14 C                |    90.00
   13 C                |  12 C                |  15 C                |    90.00
   14 C                |  12 C                |  15 C                |    90.00
    5 H                |  13 C                |  10 C                |   125.26
    5 H                |  13 C                |  11 C                |   125.26
    5 H                |  13 C                |  12 C                |   125.26
   10 C                |  13 C                |  11 C                |    90.00
   10 C                |  13 C                |  12 C                |    90.00
   11 C                |  13 C                |  12 C                |    90.00
    6 H                |  14 C                |   9 C                |   125.26
    6 H                |  14 C                |  11 C                |   125.26
    6 H                |  14 C                |  12 C                |   125.26
    9 C                |  14 C                |  11 C                |    90.00
    9 C                |  14 C                |  12 C                |    90.00
   11 C                |  14 C                |  12 C                |    90.00
    7 H                |  15 C                |   9 C                |   125.26
    7 H                |  15 C                |  10 C                |   125.26
    7 H                |  15 C                |  12 C                |   125.26
    9 C                |  15 C                |  10 C                |    90.00
    9 C                |  15 C                |  12 C                |    90.00
   10 C                |  15 C                |  12 C                |    90.00
    8 H                |  16 C                |   9 C                |   125.26
    8 H                |  16 C                |  10 C                |   125.26
    8 H                |  16 C                |  11 C                |   125.26
    9 C                |  16 C                |  10 C                |    90.00
    9 C                |  16 C                |  11 C                |    90.00
   10 C                |  16 C                |  11 C                |    90.00
 ------------------------------------------------------------------------------
                            number of included internuclear angles:         48
 ==============================================================================




 Task  times  cpu:    29172.5s     wall:    33708.9s
 Summary of allocated global arrays
-----------------------------------
  No active global arrays



                         GA Statistics for process    0
                         ------------------------------

       create   destroy   get      put      acc     scatter   gather  read&inc
calls: 5.50e+04 5.50e+04 1.52e+08 1.71e+06 2.22e+07    0        0     3.91e+07 
number of processes/call 1.00e+00 1.00e+00 1.00e+00 0.00e+00 0.00e+00
bytes total:             3.32e+12 2.62e+10 1.30e+11 0.00e+00 0.00e+00 3.13e+08
bytes remote:            0.00e+00 0.00e+00 0.00e+00 0.00e+00 0.00e+00 0.00e+00
Max memory consumed for GA by this process: 207815296 bytes
MA_summarize_allocated_blocks: starting scan ...
MA_summarize_allocated_blocks: scan completed: 0 heap blocks, 0 stack blocks
MA usage statistics:

	allocation statistics:
					      heap	     stack
					      ----	     -----
	current number of blocks	         0	         0
	maximum number of blocks	        19	        40
	current total bytes		         0	         0
	maximum total bytes		     80120	  37528952
	maximum total K-bytes		        81	     37529
	maximum total M-bytes		         1	        38


                                NWChem Input Module
                                -------------------





                                     CITATION
                                     --------
                Please cite the following reference when publishing
                           results obtained with NWChem:

                 M. Valiev, E.J. Bylaska, N. Govind, K. Kowalski,
              T.P. Straatsma, H.J.J. van Dam, D. Wang, J. Nieplocha,
                        E. Apra, T.L. Windus, W.A. de Jong
                 "NWChem: a comprehensive and scalable open-source
                  solution for large scale molecular simulations"
                      Comput. Phys. Commun. 181, 1477 (2010)
                           doi:10.1016/j.cpc.2010.04.018

                              AUTHORS & CONTRIBUTORS
                              ----------------------
          E. Apra, E. J. Bylaska, W. A. de Jong, N. Govind, K. Kowalski,
       T. P. Straatsma, M. Valiev, H. J. J. van Dam, D. Wang, T. L. Windus,
        J. Hammond, J. Autschbach, K. Bhaskaran-Nair, J. Brabec, K. Lopata,
          F. Aquino, S. Hirata, M. T. Hackler, T. Risthaus, M. Malagoli,
   A. Otero-de-la-Roza, J. Mullin, P. Nichols, R. Peverati, J. Pittner, Y. Zhao,
         P.-D. Fan , A. Fonari, R. J. Harrison, M. Dupuis, D. Silverstein,
    D. M. A. S mith, J. Nieplocha, V. Tipparaju, M. Krishnan, B. E. Van Kuiken,
        A. Vazquez-Mayagoitia, L. Jensen, M. Swart, Q. Wu, T. Van Voorhis,
     A. A. Auer, M. Nooijen, L. D. Crosby, E. Brown, G. Cisneros, G. I . Fann,
     H. Fruchtl, J. Garza, K. Hirao, R. Kendall, J. A. Nichols, K. Tsemekhman,
     K. Wolinski, J. Anchell, D. Bernholdt, P. Borowski , T. Clark, D. Clerc,
      H. Dachsel, M. Deegan, K. Dyall, D. Elwood, E. Glendening, M. Gutowski,
      A. Hess, J. Jaffe, B. Johnson, J. Ju, R. Kobayashi, R. Kutteh, Z. Lin,
   R. Littlefield, X. Long, B. Meng, T. Nakajima, S. Niu, L. Pollack, M. Rosing,
   K. Glaesemann, G. Sandrone, M. Stave, H. Taylor, G. Thomas, J. H. van Lenthe,
                                A. Wong, Z. Zhang.

 Total times  cpu:    29172.7s     wall:    33709.5s
