 argument  1 = cubane.nw
                                         
                                         


              Northwest Computational Chemistry Package (NWChem) 6.6
              ------------------------------------------------------


                    Environmental Molecular Sciences Laboratory
                       Pacific Northwest National Laboratory
                                Richland, WA 99352

                              Copyright (c) 1994-2015
                       Pacific Northwest National Laboratory
                            Battelle Memorial Institute

             NWChem is an open-source computational chemistry package
                        distributed under the terms of the
                      Educational Community License (ECL) 2.0
             A copy of the license is included with this distribution
                              in the LICENSE.TXT file

                                  ACKNOWLEDGMENT
                                  --------------

            This software and its documentation were developed at the
            EMSL at Pacific Northwest National Laboratory, a multiprogram
            national laboratory, operated for the U.S. Department of Energy
            by Battelle under Contract Number DE-AC05-76RL01830. Support
            for this work was provided by the Department of Energy Office
            of Biological and Environmental Research, Office of Basic
            Energy Sciences, and the Office of Advanced Scientific Computing.


           Job information
           ---------------

    hostname        = dasha
    program         = nwchem
    date            = Sat Mar  4 10:49:47 2017

    compiled        = Mon_Feb_15_08:24:17_2016
    source          = /build/nwchem-MF0R1k/nwchem-6.6+r27746
    nwchem branch   = 6.6
    nwchem revision = 27746
    ga revision     = 10594
    input           = cubane.nw
    prefix          = cubane.
    data base       = ./cubane.db
    status          = startup
    nproc           =        1
    time left       =     -1s



           Memory information
           ------------------

    heap     =   13107196 doubles =    100.0 Mbytes
    stack    =   13107201 doubles =    100.0 Mbytes
    global   =   26214400 doubles =    200.0 Mbytes (distinct from heap & stack)
    total    =   52428797 doubles =    400.0 Mbytes
    verify   = yes
    hardfail = no 


           Directory information
           ---------------------

  0 permanent = .
  0 scratch   = .




                                NWChem Input Module
                                -------------------


                     cubane MP2/cc-pCVDZ geometry optimization
                     -----------------------------------------

 Scaling coordinates for geometry "geometry" by  1.889725989
 (inverse scale =  0.529177249)

 Turning off AUTOSYM since
 SYMMETRY directive was detected!


          ------
          auto-z
          ------


                             Geometry "geometry" -> ""
                             -------------------------

 Output coordinates in angstroms (scale by  1.889725989 to convert to a.u.)

  No.       Tag          Charge          X              Y              Z
 ---- ---------------- ---------- -------------- -------------- --------------
    1 H                    1.0000     1.41060000     1.41060000     1.41060000
    2 H                    1.0000    -1.41060000    -1.41060000     1.41060000
    3 H                    1.0000    -1.41060000     1.41060000    -1.41060000
    4 H                    1.0000     1.41060000    -1.41060000    -1.41060000
    5 H                    1.0000     1.41060000     1.41060000    -1.41060000
    6 H                    1.0000    -1.41060000    -1.41060000    -1.41060000
    7 H                    1.0000     1.41060000    -1.41060000     1.41060000
    8 H                    1.0000    -1.41060000     1.41060000     1.41060000
    9 C                    6.0000     0.78370000     0.78370000     0.78370000
   10 C                    6.0000    -0.78370000    -0.78370000     0.78370000
   11 C                    6.0000    -0.78370000     0.78370000    -0.78370000
   12 C                    6.0000     0.78370000    -0.78370000    -0.78370000
   13 C                    6.0000     0.78370000     0.78370000    -0.78370000
   14 C                    6.0000    -0.78370000    -0.78370000    -0.78370000
   15 C                    6.0000     0.78370000    -0.78370000     0.78370000
   16 C                    6.0000    -0.78370000     0.78370000     0.78370000

      Atomic Mass 
      ----------- 

      H                  1.007825
      C                 12.000000


 Effective nuclear repulsion energy (a.u.)     367.6689717653

            Nuclear Dipole moment (a.u.) 
            ----------------------------
        X                 Y               Z
 ---------------- ---------------- ----------------
     0.0000000000     0.0000000000     0.0000000000

      Symmetry information
      --------------------

 Group name              Oh       
 Group number             44
 Group order              48
 No. of unique centers     2

      Symmetry unique atoms

     1    9



                                Z-matrix (autoz)
                                -------- 

 Units are Angstrom for bonds and degrees for angles

      Type          Name      I     J     K     L     M      Value
      ----------- --------  ----- ----- ----- ----- ----- ----------
    1 Stretch                  1     9                       1.08582
    2 Stretch                  2    10                       1.08582
    3 Stretch                  3    11                       1.08582
    4 Stretch                  4    12                       1.08582
    5 Stretch                  5    13                       1.08582
    6 Stretch                  6    14                       1.08582
    7 Stretch                  7    15                       1.08582
    8 Stretch                  8    16                       1.08582
    9 Stretch                  9    13                       1.56740
   10 Stretch                  9    15                       1.56740
   11 Stretch                  9    16                       1.56740
   12 Stretch                 10    14                       1.56740
   13 Stretch                 10    15                       1.56740
   14 Stretch                 10    16                       1.56740
   15 Stretch                 11    13                       1.56740
   16 Stretch                 11    14                       1.56740
   17 Stretch                 11    16                       1.56740
   18 Stretch                 12    13                       1.56740
   19 Stretch                 12    14                       1.56740
   20 Stretch                 12    15                       1.56740
   21 Bend                     1     9    13               125.26439
   22 Bend                     1     9    15               125.26439
   23 Bend                     1     9    16               125.26439
   24 Bend                     2    10    14               125.26439
   25 Bend                     2    10    15               125.26439
   26 Bend                     2    10    16               125.26439
   27 Bend                     3    11    13               125.26439
   28 Bend                     3    11    14               125.26439
   29 Bend                     3    11    16               125.26439
   30 Bend                     4    12    13               125.26439
   31 Bend                     4    12    14               125.26439
   32 Bend                     4    12    15               125.26439
   33 Bend                     5    13     9               125.26439
   34 Bend                     5    13    11               125.26439
   35 Bend                     5    13    12               125.26439
   36 Bend                     6    14    10               125.26439
   37 Bend                     6    14    11               125.26439
   38 Bend                     6    14    12               125.26439
   39 Bend                     7    15     9               125.26439
   40 Bend                     7    15    10               125.26439
   41 Bend                     7    15    12               125.26439
   42 Bend                     8    16     9               125.26439
   43 Bend                     8    16    10               125.26439
   44 Bend                     8    16    11               125.26439
   45 Bend                     9    13    11                90.00000
   46 Bend                     9    13    12                90.00000
   47 Bend                     9    15    10                90.00000
   48 Bend                     9    15    12                90.00000
   49 Bend                     9    16    10                90.00000
   50 Bend                     9    16    11                90.00000
   51 Bend                    10    14    11                90.00000
   52 Bend                    10    14    12                90.00000
   53 Bend                    10    15    12                90.00000
   54 Bend                    10    16    11                90.00000
   55 Bend                    11    13    12                90.00000
   56 Bend                    11    14    12                90.00000
   57 Bend                    13     9    15                90.00000
   58 Bend                    13     9    16                90.00000
   59 Bend                    13    11    14                90.00000
   60 Bend                    13    11    16                90.00000
   61 Bend                    13    12    14                90.00000
   62 Bend                    13    12    15                90.00000
   63 Bend                    14    10    15                90.00000
   64 Bend                    14    10    16                90.00000
   65 Bend                    14    11    16                90.00000
   66 Bend                    14    12    15                90.00000
   67 Bend                    15     9    16                90.00000
   68 Bend                    15    10    16                90.00000
   69 Torsion                  1     9    13     5           0.00000
   70 Torsion                  1     9    13    11        -135.00000
   71 Torsion                  1     9    13    12         135.00000
   72 Torsion                  1     9    15     7           0.00000
   73 Torsion                  1     9    15    10         135.00000
   74 Torsion                  1     9    15    12        -135.00000
   75 Torsion                  1     9    16     8           0.00000
   76 Torsion                  1     9    16    10        -135.00000
   77 Torsion                  1     9    16    11         135.00000
   78 Torsion                  2    10    14     6           0.00000
   79 Torsion                  2    10    14    11         135.00000
   80 Torsion                  2    10    14    12        -135.00000
   81 Torsion                  2    10    15     7           0.00000
   82 Torsion                  2    10    15     9        -135.00000
   83 Torsion                  2    10    15    12         135.00000
   84 Torsion                  2    10    16     8           0.00000
   85 Torsion                  2    10    16     9         135.00000
   86 Torsion                  2    10    16    11        -135.00000
   87 Torsion                  3    11    13     5           0.00000
   88 Torsion                  3    11    13     9         135.00000
   89 Torsion                  3    11    13    12        -135.00000
   90 Torsion                  3    11    14     6           0.00000
   91 Torsion                  3    11    14    10        -135.00000
   92 Torsion                  3    11    14    12         135.00000
   93 Torsion                  3    11    16     8           0.00000
   94 Torsion                  3    11    16     9        -135.00000
   95 Torsion                  3    11    16    10         135.00000
   96 Torsion                  4    12    13     5           0.00000
   97 Torsion                  4    12    13     9        -135.00000
   98 Torsion                  4    12    13    11         135.00000
   99 Torsion                  4    12    14     6           0.00000
  100 Torsion                  4    12    14    10         135.00000
  101 Torsion                  4    12    14    11        -135.00000
  102 Torsion                  4    12    15     7           0.00000
  103 Torsion                  4    12    15     9         135.00000
  104 Torsion                  4    12    15    10        -135.00000
  105 Torsion                  5    13     9    15        -135.00000
  106 Torsion                  5    13     9    16         135.00000
  107 Torsion                  5    13    11    14         135.00000
  108 Torsion                  5    13    11    16        -135.00000
  109 Torsion                  5    13    12    14        -135.00000
  110 Torsion                  5    13    12    15         135.00000
  111 Torsion                  6    14    10    15         135.00000
  112 Torsion                  6    14    10    16        -135.00000
  113 Torsion                  6    14    11    13        -135.00000
  114 Torsion                  6    14    11    16         135.00000
  115 Torsion                  6    14    12    13         135.00000
  116 Torsion                  6    14    12    15        -135.00000
  117 Torsion                  7    15     9    13         135.00000
  118 Torsion                  7    15     9    16        -135.00000
  119 Torsion                  7    15    10    14        -135.00000
  120 Torsion                  7    15    10    16         135.00000
  121 Torsion                  7    15    12    13        -135.00000
  122 Torsion                  7    15    12    14         135.00000
  123 Torsion                  8    16     9    13        -135.00000
  124 Torsion                  8    16     9    15         135.00000
  125 Torsion                  8    16    10    14         135.00000
  126 Torsion                  8    16    10    15        -135.00000
  127 Torsion                  8    16    11    13         135.00000
  128 Torsion                  8    16    11    14        -135.00000
  129 Torsion                  9    13    11    14         -90.00000
  130 Torsion                  9    13    11    16           0.00000
  131 Torsion                  9    13    12    14          90.00000
  132 Torsion                  9    13    12    15           0.00000
  133 Torsion                  9    15    10    14          90.00000
  134 Torsion                  9    15    10    16           0.00000
  135 Torsion                  9    15    12    13           0.00000
  136 Torsion                  9    15    12    14         -90.00000
  137 Torsion                  9    16    10    14         -90.00000
  138 Torsion                  9    16    10    15           0.00000
  139 Torsion                  9    16    11    13           0.00000
  140 Torsion                  9    16    11    14          90.00000
  141 Torsion                 10    14    11    13          90.00000
  142 Torsion                 10    14    11    16           0.00000
  143 Torsion                 10    14    12    13         -90.00000
  144 Torsion                 10    14    12    15           0.00000
  145 Torsion                 10    15     9    13         -90.00000
  146 Torsion                 10    15     9    16           0.00000
  147 Torsion                 10    15    12    13          90.00000
  148 Torsion                 10    15    12    14           0.00000
  149 Torsion                 10    16     9    13          90.00000
  150 Torsion                 10    16     9    15           0.00000
  151 Torsion                 10    16    11    13         -90.00000
  152 Torsion                 10    16    11    14           0.00000
  153 Torsion                 11    13     9    15          90.00000
  154 Torsion                 11    13     9    16           0.00000
  155 Torsion                 11    13    12    14           0.00000
  156 Torsion                 11    13    12    15         -90.00000
  157 Torsion                 11    14    10    15         -90.00000
  158 Torsion                 11    14    10    16           0.00000
  159 Torsion                 11    14    12    13           0.00000
  160 Torsion                 11    14    12    15          90.00000
  161 Torsion                 11    16     9    13           0.00000
  162 Torsion                 11    16     9    15         -90.00000
  163 Torsion                 11    16    10    14           0.00000
  164 Torsion                 11    16    10    15          90.00000
  165 Torsion                 12    13     9    15           0.00000
  166 Torsion                 12    13     9    16         -90.00000
  167 Torsion                 12    13    11    14           0.00000
  168 Torsion                 12    13    11    16          90.00000
  169 Torsion                 12    14    10    15           0.00000
  170 Torsion                 12    14    10    16          90.00000
  171 Torsion                 12    14    11    13           0.00000
  172 Torsion                 12    14    11    16         -90.00000
  173 Torsion                 12    15     9    13           0.00000
  174 Torsion                 12    15     9    16          90.00000
  175 Torsion                 12    15    10    14           0.00000
  176 Torsion                 12    15    10    16         -90.00000


            XYZ format geometry
            -------------------
    16
 geometry
 H                     1.41060000     1.41060000     1.41060000
 H                    -1.41060000    -1.41060000     1.41060000
 H                    -1.41060000     1.41060000    -1.41060000
 H                     1.41060000    -1.41060000    -1.41060000
 H                     1.41060000     1.41060000    -1.41060000
 H                    -1.41060000    -1.41060000    -1.41060000
 H                     1.41060000    -1.41060000     1.41060000
 H                    -1.41060000     1.41060000     1.41060000
 C                     0.78370000     0.78370000     0.78370000
 C                    -0.78370000    -0.78370000     0.78370000
 C                    -0.78370000     0.78370000    -0.78370000
 C                     0.78370000    -0.78370000    -0.78370000
 C                     0.78370000     0.78370000    -0.78370000
 C                    -0.78370000    -0.78370000    -0.78370000
 C                     0.78370000    -0.78370000     0.78370000
 C                    -0.78370000     0.78370000     0.78370000

 ==============================================================================
                                internuclear distances
 ------------------------------------------------------------------------------
       center one      |      center two      | atomic units |  angstroms
 ------------------------------------------------------------------------------
    9 C                |   1 H                |     2.05191  |     1.08582
   10 C                |   2 H                |     2.05191  |     1.08582
   11 C                |   3 H                |     2.05191  |     1.08582
   12 C                |   4 H                |     2.05191  |     1.08582
   13 C                |   5 H                |     2.05191  |     1.08582
   13 C                |   9 C                |     2.96196  |     1.56740
   13 C                |  11 C                |     2.96196  |     1.56740
   13 C                |  12 C                |     2.96196  |     1.56740
   14 C                |   6 H                |     2.05191  |     1.08582
   14 C                |  10 C                |     2.96196  |     1.56740
   14 C                |  11 C                |     2.96196  |     1.56740
   14 C                |  12 C                |     2.96196  |     1.56740
   15 C                |   7 H                |     2.05191  |     1.08582
   15 C                |   9 C                |     2.96196  |     1.56740
   15 C                |  10 C                |     2.96196  |     1.56740
   15 C                |  12 C                |     2.96196  |     1.56740
   16 C                |   8 H                |     2.05191  |     1.08582
   16 C                |   9 C                |     2.96196  |     1.56740
   16 C                |  10 C                |     2.96196  |     1.56740
   16 C                |  11 C                |     2.96196  |     1.56740
 ------------------------------------------------------------------------------
                         number of included internuclear distances:         20
 ==============================================================================



 ==============================================================================
                                 internuclear angles
 ------------------------------------------------------------------------------
        center 1       |       center 2       |       center 3       |  degrees
 ------------------------------------------------------------------------------
    1 H                |   9 C                |  13 C                |   125.26
    1 H                |   9 C                |  15 C                |   125.26
    1 H                |   9 C                |  16 C                |   125.26
   13 C                |   9 C                |  15 C                |    90.00
   13 C                |   9 C                |  16 C                |    90.00
   15 C                |   9 C                |  16 C                |    90.00
    2 H                |  10 C                |  14 C                |   125.26
    2 H                |  10 C                |  15 C                |   125.26
    2 H                |  10 C                |  16 C                |   125.26
   14 C                |  10 C                |  15 C                |    90.00
   14 C                |  10 C                |  16 C                |    90.00
   15 C                |  10 C                |  16 C                |    90.00
    3 H                |  11 C                |  13 C                |   125.26
    3 H                |  11 C                |  14 C                |   125.26
    3 H                |  11 C                |  16 C                |   125.26
   13 C                |  11 C                |  14 C                |    90.00
   13 C                |  11 C                |  16 C                |    90.00
   14 C                |  11 C                |  16 C                |    90.00
    4 H                |  12 C                |  13 C                |   125.26
    4 H                |  12 C                |  14 C                |   125.26
    4 H                |  12 C                |  15 C                |   125.26
   13 C                |  12 C                |  14 C                |    90.00
   13 C                |  12 C                |  15 C                |    90.00
   14 C                |  12 C                |  15 C                |    90.00
    5 H                |  13 C                |   9 C                |   125.26
    5 H                |  13 C                |  11 C                |   125.26
    5 H                |  13 C                |  12 C                |   125.26
    9 C                |  13 C                |  11 C                |    90.00
    9 C                |  13 C                |  12 C                |    90.00
   11 C                |  13 C                |  12 C                |    90.00
    6 H                |  14 C                |  10 C                |   125.26
    6 H                |  14 C                |  11 C                |   125.26
    6 H                |  14 C                |  12 C                |   125.26
   10 C                |  14 C                |  11 C                |    90.00
   10 C                |  14 C                |  12 C                |    90.00
   11 C                |  14 C                |  12 C                |    90.00
    7 H                |  15 C                |   9 C                |   125.26
    7 H                |  15 C                |  10 C                |   125.26
    7 H                |  15 C                |  12 C                |   125.26
    9 C                |  15 C                |  10 C                |    90.00
    9 C                |  15 C                |  12 C                |    90.00
   10 C                |  15 C                |  12 C                |    90.00
    8 H                |  16 C                |   9 C                |   125.26
    8 H                |  16 C                |  10 C                |   125.26
    8 H                |  16 C                |  11 C                |   125.26
    9 C                |  16 C                |  10 C                |    90.00
    9 C                |  16 C                |  11 C                |    90.00
   10 C                |  16 C                |  11 C                |    90.00
 ------------------------------------------------------------------------------
                            number of included internuclear angles:         48
 ==============================================================================



  library name resolved from: environment
  library file name is: </home/dasha/bin/nwchem-6.6/src/basis/libraries/>
  
                      Basis "ao basis" -> "" (spherical)
                      -----
  H (Hydrogen)
  ------------
            Exponent  Coefficients 
       -------------- ---------------------------------------------------------
  1 S  1.30100000E+01  0.019685
  1 S  1.96200000E+00  0.137977
  1 S  4.44600000E-01  0.478148

  2 S  1.22000000E-01  1.000000

  3 P  7.27000000E-01  1.000000

  C (Carbon)
  ----------
            Exponent  Coefficients 
       -------------- ---------------------------------------------------------
  1 S  6.66500000E+03  0.000692
  1 S  1.00000000E+03  0.005329
  1 S  2.28000000E+02  0.027077
  1 S  6.47100000E+01  0.101718
  1 S  2.10600000E+01  0.274740
  1 S  7.49500000E+00  0.448564
  1 S  2.79700000E+00  0.285074
  1 S  5.21500000E-01  0.015204

  2 S  6.66500000E+03 -0.000146
  2 S  1.00000000E+03 -0.001154
  2 S  2.28000000E+02 -0.005725
  2 S  6.47100000E+01 -0.023312
  2 S  2.10600000E+01 -0.063955
  2 S  7.49500000E+00 -0.149981
  2 S  2.79700000E+00 -0.127262
  2 S  5.21500000E-01  0.544529

  3 S  1.59600000E-01  1.000000

  4 S  4.53000000E+00  1.000000

  5 P  9.43900000E+00  0.038109
  5 P  2.00200000E+00  0.209480
  5 P  5.45600000E-01  0.508557

  6 P  1.51700000E-01  1.000000

  7 P  1.45570000E+01  1.000000

  8 D  5.50000000E-01  1.000000



 Summary of "ao basis" -> "" (spherical)
 ------------------------------------------------------------------------------
       Tag                 Description            Shells   Functions and Types
 ---------------- ------------------------------  ------  ---------------------
 H                          cc-pVDZ                  3        5   2s1p
 C                          cc-pCVDZ                 8       18   4s3p1d




                           NWChem Geometry Optimization
                           ----------------------------




                     cubane MP2/cc-pCVDZ geometry optimization


 maximum gradient threshold         (gmax) =   0.000450
 rms gradient threshold             (grms) =   0.000300
 maximum cartesian step threshold   (xmax) =   0.001800
 rms cartesian step threshold       (xrms) =   0.001200
 fixed trust radius                (trust) =   0.300000
 maximum step size to saddle      (sadstp) =   0.100000
 energy precision                  (eprec) =   1.0D-07
 maximum number of steps          (nptopt) =   20
 initial hessian option           (inhess) =    0
 line search option               (linopt) =    1
 hessian update option            (modupd) =    1
 saddle point option              (modsad) =    0
 initial eigen-mode to follow     (moddir) =    0
 initial variable to follow       (vardir) =    0
 follow first negative mode     (firstneg) =    T
 apply conjugacy                    (opcg) =    F
 source of zmatrix                         =   autoz   


          -------------------
          Energy Minimization
          -------------------


 Names of Z-matrix variables 
    1              2              3              4              5         
    6              7              8              9             10         
   11             12             13             14             15         
   16             17             18             19             20         
   21             22             23             24             25         
   26             27             28             29             30         
   31             32             33             34             35         
   36             37             38             39             40         
   41             42             43             44             45         
   46             47             48             49             50         
   51             52             53             54             55         
   56             57             58             59             60         
   61             62             63             64             65         
   66             67             68             69             70         
   71             72             73             74             75         
   76             77             78             79             80         
   81             82             83             84             85         
   86             87             88             89             90         
   91             92             93             94             95         
   96             97             98             99            100         
  101            102            103            104            105         
  106            107            108            109            110         
  111            112            113            114            115         
  116            117            118            119            120         
  121            122            123            124            125         
  126            127            128            129            130         
  131            132            133            134            135         
  136            137            138            139            140         
  141            142            143            144            145         
  146            147            148            149            150         
  151            152            153            154            155         
  156            157            158            159            160         
  161            162            163            164            165         
  166            167            168            169            170         
  171            172            173            174            175         
  176         

 Variables with the same non-blank name are constrained to be equal


 Using diagonal initial Hessian 
 Scaling for Hessian diagonals: bonds = 1.00  angles = 0.25  torsions = 0.10

          --------
          Step   0
          --------


                         Geometry "geometry" -> "geometry"
                         ---------------------------------

 Output coordinates in angstroms (scale by  1.889725989 to convert to a.u.)

  No.       Tag          Charge          X              Y              Z
 ---- ---------------- ---------- -------------- -------------- --------------
    1 H                    1.0000     1.41060000     1.41060000     1.41060000
    2 H                    1.0000    -1.41060000    -1.41060000     1.41060000
    3 H                    1.0000    -1.41060000     1.41060000    -1.41060000
    4 H                    1.0000     1.41060000    -1.41060000    -1.41060000
    5 H                    1.0000     1.41060000     1.41060000    -1.41060000
    6 H                    1.0000    -1.41060000    -1.41060000    -1.41060000
    7 H                    1.0000     1.41060000    -1.41060000     1.41060000
    8 H                    1.0000    -1.41060000     1.41060000     1.41060000
    9 C                    6.0000     0.78370000     0.78370000     0.78370000
   10 C                    6.0000    -0.78370000    -0.78370000     0.78370000
   11 C                    6.0000    -0.78370000     0.78370000    -0.78370000
   12 C                    6.0000     0.78370000    -0.78370000    -0.78370000
   13 C                    6.0000     0.78370000     0.78370000    -0.78370000
   14 C                    6.0000    -0.78370000    -0.78370000    -0.78370000
   15 C                    6.0000     0.78370000    -0.78370000     0.78370000
   16 C                    6.0000    -0.78370000     0.78370000     0.78370000

      Atomic Mass 
      ----------- 

      H                  1.007825
      C                 12.000000


 Effective nuclear repulsion energy (a.u.)     367.6689717653

            Nuclear Dipole moment (a.u.) 
            ----------------------------
        X                 Y               Z
 ---------------- ---------------- ----------------
     0.0000000000     0.0000000000     0.0000000000

      Symmetry information
      --------------------

 Group name              Oh       
 Group number             44
 Group order              48
 No. of unique centers     2

      Symmetry unique atoms

     1    9

                                 NWChem SCF Module
                                 -----------------


                     cubane MP2/cc-pCVDZ geometry optimization



  ao basis        = "ao basis"
  functions       =   184
  atoms           =    16
  closed shells   =    28
  open shells     =     0
  charge          =   0.00
  wavefunction    = RHF 
  input vectors   = atomic
  output vectors  = ./cubane.movecs
  use symmetry    = T
  symmetry adapt  = T


 Summary of "ao basis" -> "ao basis" (spherical)
 ------------------------------------------------------------------------------
       Tag                 Description            Shells   Functions and Types
 ---------------- ------------------------------  ------  ---------------------
 H                          cc-pVDZ                  3        5   2s1p
 C                          cc-pCVDZ                 8       18   4s3p1d


      Symmetry analysis of basis
      --------------------------

        a1g        11
        a1u         0
        a2g         0
        a2u        11
        eg         12
        eu         12
        t1g        18
        t1u        51
        t2g        51
        t2u        18


 Forming initial guess at       0.5s


      Superposition of Atomic Density Guess
      -------------------------------------

 Sum of atomic energies:        -305.32373731

      Non-variational initial energy
      ------------------------------

 Total energy =    -311.824377
 1-e energy   =   -1138.486319
 2-e energy   =     458.992970
 HOMO         =      -0.286729
 LUMO         =       0.058714


      Symmetry analysis of molecular orbitals - initial
      -------------------------------------------------

  Numbering of irreducible representations: 

     1 a1g         2 a1u         3 a2g         4 a2u         5 eg      
     6 eu          7 t1g         8 t1u         9 t2g        10 t2u     

  Orbital symmetries:

     1 a1g         2 t1u         3 t1u         4 t1u         5 t2g     
     6 t2g         7 t2g         8 a2u         9 a1g        10 t1u     
    11 t1u        12 t1u        13 t2g        14 t2g        15 t2g     
    16 a1g        17 a2u        18 eg         19 eg         20 t1u     
    21 t1u        22 t1u        23 t2u        24 t2u        25 t2u     
    26 t2g        27 t2g        28 t2g        29 t1u        30 t1u     
    31 t1u        32 a1g        33 t1u        34 t1u        35 t1u     
    36 t2g        37 t2g        38 t2g     


 Starting SCF solution at       1.7s



 ----------------------------------------------
         Quadratically convergent ROHF

 Convergence threshold     :          1.000E-06
 Maximum no. of iterations :           30
 Final Fock-matrix accuracy:          1.000E-08
 ----------------------------------------------


              iter       energy          gnorm     gmax       time
             ----- ------------------- --------- --------- --------
                 1     -307.3364829837  9.31D-01  2.32D-01      4.0
                 2     -307.4159641116  1.92D-01  4.46D-02      8.0
                 3     -307.4184014415  5.98D-03  1.25D-03     13.7
                 4     -307.4184047545  5.38D-06  1.18D-06     22.6
                 5     -307.4184047545  4.57D-08  1.01D-08     29.5


       Final RHF  results 
       ------------------ 

         Total SCF energy =   -307.418404754494
      One-electron energy =  -1144.397970710927
      Two-electron energy =    469.310594191122
 Nuclear repulsion energy =    367.668971765311

        Time for solution =     28.0s



       Symmetry analysis of molecular orbitals - final
       -----------------------------------------------

  Numbering of irreducible representations: 

     1 a1g         2 a1u         3 a2g         4 a2u         5 eg      
     6 eu          7 t1g         8 t1u         9 t2g        10 t2u     

  Orbital symmetries:

     1 a1g         2 t1u         3 t1u         4 t1u         5 t2g     
     6 t2g         7 t2g         8 a2u         9 a1g        10 t1u     
    11 t1u        12 t1u        13 t2g        14 t2g        15 t2g     
    16 a1g        17 a2u        18 t1u        19 t1u        20 t1u     
    21 eg         22 eg         23 t2u        24 t2u        25 t2u     
    26 t2g        27 t2g        28 t2g        29 a1g        30 t1u     
    31 t1u        32 t1u        33 t2g        34 t2g        35 t2g     
    36 t1u        37 t1u        38 t1u     

             Final eigenvalues
             -----------------

              1      
    1  -11.2265
    2  -11.2260
    3  -11.2260
    4  -11.2260
    5  -11.2255
    6  -11.2255
    7  -11.2255
    8  -11.2250
    9   -1.2478
   10   -0.9810
   11   -0.9810
   12   -0.9810
   13   -0.7693
   14   -0.7693
   15   -0.7693
   16   -0.7113
   17   -0.6424
   18   -0.5813
   19   -0.5813
   20   -0.5813
   21   -0.5800
   22   -0.5800
   23   -0.3910
   24   -0.3910
   25   -0.3910
   26   -0.3843
   27   -0.3843
   28   -0.3843
   29    0.1832
   30    0.2040
   31    0.2040
   32    0.2040
   33    0.2548
   34    0.2548
   35    0.2548
   36    0.2588
   37    0.2588
   38    0.2588

                       ROHF Final Molecular Orbital Analysis
                       -------------------------------------

 Vector    9  Occ=2.000000D+00  E=-1.247760D+00  Symmetry=a1g
              MO Center=  4.2D-17,  2.1D-17,  0.0D+00, r^2= 1.7D+00
   Bfn.  Coefficient  Atom+Function         Bfn.  Coefficient  Atom+Function  
  ----- ------------  ---------------      ----- ------------  ---------------
    42      0.133372   9 C  s                60      0.133372  10 C  s         
    78      0.133372  11 C  s                96      0.133372  12 C  s         
   114      0.133372  13 C  s               132      0.133372  14 C  s         
   150      0.133372  15 C  s               168      0.133372  16 C  s         

 Vector   10  Occ=2.000000D+00  E=-9.810140D-01  Symmetry=t1u
              MO Center=  1.2D-16, -4.2D-17,  3.1D-16, r^2= 2.6D+00
   Bfn.  Coefficient  Atom+Function         Bfn.  Coefficient  Atom+Function  
  ----- ------------  ---------------      ----- ------------  ---------------
    60      0.213996  10 C  s               114     -0.213996  13 C  s         
    61      0.197106  10 C  s               115     -0.197106  13 C  s         
    42     -0.159486   9 C  s               132      0.159486  14 C  s         

 Vector   11  Occ=2.000000D+00  E=-9.810140D-01  Symmetry=t1u
              MO Center=  5.2D-16, -2.4D-16,  1.0D-15, r^2= 2.6D+00
   Bfn.  Coefficient  Atom+Function         Bfn.  Coefficient  Atom+Function  
  ----- ------------  ---------------      ----- ------------  ---------------
    42      0.167822   9 C  s               132     -0.167822  14 C  s         
    78     -0.158714  11 C  s               150      0.158714  15 C  s         
    43      0.154576   9 C  s               133     -0.154576  14 C  s         

 Vector   12  Occ=2.000000D+00  E=-9.810140D-01  Symmetry=t1u
              MO Center= -3.3D-16, -3.3D-16,  1.0D-16, r^2= 2.6D+00
   Bfn.  Coefficient  Atom+Function         Bfn.  Coefficient  Atom+Function  
  ----- ------------  ---------------      ----- ------------  ---------------
    96      0.206492  12 C  s               168     -0.206492  16 C  s         
    97      0.190193  12 C  s               169     -0.190193  16 C  s         
    78     -0.170818  11 C  s               150      0.170818  15 C  s         
    79     -0.157336  11 C  s               151      0.157336  15 C  s         

 Vector   13  Occ=2.000000D+00  E=-7.693467D-01  Symmetry=t2g
              MO Center= -1.1D-15, -9.0D-17, -4.4D-16, r^2= 4.1D+00
   Bfn.  Coefficient  Atom+Function         Bfn.  Coefficient  Atom+Function  
  ----- ------------  ---------------      ----- ------------  ---------------
    97      0.296648  12 C  s               169      0.296648  16 C  s         
    96      0.205676  12 C  s               168      0.205676  16 C  s         
    16      0.197845   4 H  s                36      0.197845   8 H  s         

 Vector   14  Occ=2.000000D+00  E=-7.693467D-01  Symmetry=t2g
              MO Center= -6.8D-16, -4.4D-16, -6.4D-16, r^2= 4.1D+00
   Bfn.  Coefficient  Atom+Function         Bfn.  Coefficient  Atom+Function  
  ----- ------------  ---------------      ----- ------------  ---------------
    43      0.260798   9 C  s               133      0.260798  14 C  s         
    79     -0.201124  11 C  s               151     -0.201124  15 C  s         
    42      0.180820   9 C  s               132      0.180820  14 C  s         
     1      0.173935   1 H  s                26      0.173935   6 H  s         

 Vector   15  Occ=2.000000D+00  E=-7.693467D-01  Symmetry=t2g
              MO Center=  1.2D-15,  1.9D-15, -1.0D-15, r^2= 4.1D+00
   Bfn.  Coefficient  Atom+Function         Bfn.  Coefficient  Atom+Function  
  ----- ------------  ---------------      ----- ------------  ---------------
    61      0.268142  10 C  s               115      0.268142  13 C  s         
    79     -0.208424  11 C  s               151     -0.208424  15 C  s         
    60      0.185911  10 C  s               114      0.185911  13 C  s         
     6      0.178833   2 H  s                21      0.178833   5 H  s         

 Vector   16  Occ=2.000000D+00  E=-7.113362D-01  Symmetry=a1g
              MO Center= -1.2D-15, -1.6D-15, -3.3D-15, r^2= 4.3D+00
   Bfn.  Coefficient  Atom+Function         Bfn.  Coefficient  Atom+Function  
  ----- ------------  ---------------      ----- ------------  ---------------
     1      0.133739   1 H  s                 6      0.133739   2 H  s         
    11      0.133739   3 H  s                16      0.133739   4 H  s         
    21      0.133739   5 H  s                26      0.133739   6 H  s         
    31      0.133739   7 H  s                36      0.133739   8 H  s         

 Vector   17  Occ=2.000000D+00  E=-6.424218D-01  Symmetry=a2u
              MO Center=  2.1D-15,  1.2D-15, -1.1D-15, r^2= 5.1D+00
   Bfn.  Coefficient  Atom+Function         Bfn.  Coefficient  Atom+Function  
  ----- ------------  ---------------      ----- ------------  ---------------
     1      0.156464   1 H  s                 6      0.156464   2 H  s         
    11      0.156464   3 H  s                16      0.156464   4 H  s         
    21     -0.156464   5 H  s                26     -0.156464   6 H  s         
    31     -0.156464   7 H  s                36     -0.156464   8 H  s         
    43      0.150158   9 C  s                61      0.150158  10 C  s         

 Vector   18  Occ=2.000000D+00  E=-5.812727D-01  Symmetry=t1u
              MO Center=  2.2D-15,  7.5D-16,  7.5D-16, r^2= 4.2D+00
   Bfn.  Coefficient  Atom+Function         Bfn.  Coefficient  Atom+Function  
  ----- ------------  ---------------      ----- ------------  ---------------
     1      0.217553   1 H  s                26     -0.217553   6 H  s         
    47      0.161533   9 C  pz              137      0.161533  14 C  pz        
    46      0.159341   9 C  py              136      0.159341  14 C  py        

 Vector   19  Occ=2.000000D+00  E=-5.812727D-01  Symmetry=t1u
              MO Center=  3.3D-16,  1.4D-16,  3.8D-17, r^2= 4.2D+00
   Bfn.  Coefficient  Atom+Function         Bfn.  Coefficient  Atom+Function  
  ----- ------------  ---------------      ----- ------------  ---------------
     6      0.201096   2 H  s                21     -0.201096   5 H  s         
    11     -0.195657   3 H  s                31      0.195657   7 H  s         
    63     -0.171805  10 C  px              117     -0.171805  13 C  px        
    81      0.170280  11 C  px              153      0.170280  15 C  px        

 Vector   20  Occ=2.000000D+00  E=-5.812727D-01  Symmetry=t1u
              MO Center=  2.4D-16,  4.6D-16,  2.5D-15, r^2= 4.2D+00
   Bfn.  Coefficient  Atom+Function         Bfn.  Coefficient  Atom+Function  
  ----- ------------  ---------------      ----- ------------  ---------------
    16      0.241078   4 H  s                36     -0.241078   8 H  s         
    99      0.169479  12 C  px              171      0.169479  16 C  px        
   101     -0.161358  12 C  pz              173     -0.161358  16 C  pz        
   100     -0.152468  12 C  py              172     -0.152468  16 C  py        

 Vector   21  Occ=2.000000D+00  E=-5.799663D-01  Symmetry=eg
              MO Center= -2.2D-16,  2.5D-16, -1.2D-15, r^2= 2.6D+00
   Bfn.  Coefficient  Atom+Function         Bfn.  Coefficient  Atom+Function  
  ----- ------------  ---------------      ----- ------------  ---------------
    47      0.168370   9 C  pz               65      0.168370  10 C  pz        
    83     -0.168370  11 C  pz              101     -0.168370  12 C  pz        
   119     -0.168370  13 C  pz              137     -0.168370  14 C  pz        
   155      0.168370  15 C  pz              173      0.168370  16 C  pz        

 Vector   22  Occ=2.000000D+00  E=-5.799663D-01  Symmetry=eg
              MO Center=  5.1D-16,  1.9D-16,  4.2D-17, r^2= 2.6D+00
   Bfn.  Coefficient  Atom+Function         Bfn.  Coefficient  Atom+Function  
  ----- ------------  ---------------      ----- ------------  ---------------
    45      0.147158   9 C  px               63     -0.147158  10 C  px        
    81     -0.147158  11 C  px               99      0.147158  12 C  px        
   117      0.147158  13 C  px              135     -0.147158  14 C  px        
   153      0.147158  15 C  px              171     -0.147158  16 C  px        
    46     -0.144468   9 C  py               64      0.144468  10 C  py        

 Vector   23  Occ=2.000000D+00  E=-3.910196D-01  Symmetry=t2u
              MO Center=  9.4D-16, -8.6D-16, -8.7D-16, r^2= 2.9D+00
   Bfn.  Coefficient  Atom+Function         Bfn.  Coefficient  Atom+Function  
  ----- ------------  ---------------      ----- ------------  ---------------
    83      0.219325  11 C  pz              101     -0.219325  12 C  pz        
   155      0.219325  15 C  pz              173     -0.219325  16 C  pz        
    46     -0.160464   9 C  py               82      0.160464  11 C  py        
   136     -0.160464  14 C  py              154      0.160464  15 C  py        

 Vector   24  Occ=2.000000D+00  E=-3.910196D-01  Symmetry=t2u
              MO Center=  1.5D-15,  1.4D-15,  1.4D-15, r^2= 2.9D+00
   Bfn.  Coefficient  Atom+Function         Bfn.  Coefficient  Atom+Function  
  ----- ------------  ---------------      ----- ------------  ---------------
    47      0.219890   9 C  pz               65     -0.219890  10 C  pz        
   119     -0.219890  13 C  pz              137      0.219890  14 C  pz        
    63     -0.153207  10 C  px               81      0.153207  11 C  px        
   117     -0.153207  13 C  px              153      0.153207  15 C  px        

 Vector   25  Occ=2.000000D+00  E=-3.910196D-01  Symmetry=t2u
              MO Center= -6.2D-16,  3.1D-16, -2.5D-16, r^2= 2.9D+00
   Bfn.  Coefficient  Atom+Function         Bfn.  Coefficient  Atom+Function  
  ----- ------------  ---------------      ----- ------------  ---------------
    64      0.182896  10 C  py              100     -0.182896  12 C  py        
   118      0.182896  13 C  py              172     -0.182896  16 C  py        
    45      0.161205   9 C  px               63     -0.160996  10 C  px        
    81      0.160996  11 C  px               99     -0.161205  12 C  px        
   117     -0.160996  13 C  px              135      0.161205  14 C  px        

 Vector   26  Occ=2.000000D+00  E=-3.842731D-01  Symmetry=t2g
              MO Center=  4.2D-16,  4.2D-16,  4.2D-16, r^2= 3.5D+00
   Bfn.  Coefficient  Atom+Function         Bfn.  Coefficient  Atom+Function  
  ----- ------------  ---------------      ----- ------------  ---------------
   100     -0.188478  12 C  py              172      0.188478  16 C  py        
    46     -0.183508   9 C  py              136      0.183508  14 C  py        
    16      0.177661   4 H  s                36      0.177661   8 H  s         
    82     -0.174589  11 C  py              154      0.174589  15 C  py        
    64     -0.169620  10 C  py              118      0.169620  13 C  py        

 Vector   27  Occ=2.000000D+00  E=-3.842731D-01  Symmetry=t2g
              MO Center= -2.8D-15, -2.3D-16, -8.9D-16, r^2= 3.5D+00
   Bfn.  Coefficient  Atom+Function         Bfn.  Coefficient  Atom+Function  
  ----- ------------  ---------------      ----- ------------  ---------------
     6      0.199906   2 H  s                21      0.199906   5 H  s         
    61     -0.166356  10 C  s               115     -0.166356  13 C  s         
    63     -0.158770  10 C  px              117      0.158770  13 C  px        

 Vector   28  Occ=2.000000D+00  E=-3.842731D-01  Symmetry=t2g
              MO Center= -2.7D-15,  3.3D-16, -3.5D-17, r^2= 3.5D+00
   Bfn.  Coefficient  Atom+Function         Bfn.  Coefficient  Atom+Function  
  ----- ------------  ---------------      ----- ------------  ---------------
    11      0.188468   3 H  s                31      0.188468   7 H  s         
    81     -0.160555  11 C  px              153      0.160555  15 C  px        
    79     -0.156838  11 C  s               151     -0.156838  15 C  s         
    45     -0.153779   9 C  px               83     -0.153568  11 C  pz        
   135      0.153779  14 C  px              155      0.153568  15 C  pz        

 Vector   29  Occ=0.000000D+00  E= 1.831742D-01  Symmetry=a1g
              MO Center=  7.6D-16,  1.0D-15, -6.7D-16, r^2= 1.0D+01
   Bfn.  Coefficient  Atom+Function         Bfn.  Coefficient  Atom+Function  
  ----- ------------  ---------------      ----- ------------  ---------------
     2      0.695844   1 H  s                 7      0.695844   2 H  s         
    12      0.695844   3 H  s                17      0.695844   4 H  s         
    22      0.695844   5 H  s                27      0.695844   6 H  s         
    32      0.695844   7 H  s                37      0.695844   8 H  s         
    43     -0.565741   9 C  s                61     -0.565741  10 C  s         

 Vector   30  Occ=0.000000D+00  E= 2.039747D-01  Symmetry=t1u
              MO Center=  1.9D-16, -2.2D-16, -2.0D-16, r^2= 7.3D+00
   Bfn.  Coefficient  Atom+Function         Bfn.  Coefficient  Atom+Function  
  ----- ------------  ---------------      ----- ------------  ---------------
    43      1.102059   9 C  s               133     -1.102059  14 C  s         
    79     -0.728114  11 C  s               151      0.728114  15 C  s         
    97     -0.694612  12 C  s               169      0.694612  16 C  s         
     2     -0.686976   1 H  s                27      0.686976   6 H  s         
    12      0.453875   3 H  s                32     -0.453875   7 H  s         

 Vector   31  Occ=0.000000D+00  E= 2.039747D-01  Symmetry=t1u
              MO Center=  1.2D-15,  3.1D-16,  2.5D-15, r^2= 7.3D+00
   Bfn.  Coefficient  Atom+Function         Bfn.  Coefficient  Atom+Function  
  ----- ------------  ---------------      ----- ------------  ---------------
    97     -1.091792  12 C  s               169      1.091792  16 C  s         
    79      1.066618  11 C  s               151     -1.066618  15 C  s         
    17      0.680575   4 H  s                37     -0.680575   8 H  s         
    12     -0.664883   3 H  s                32      0.664883   7 H  s         
    48      0.296852   9 C  px               67     -0.296871  10 C  py        

 Vector   32  Occ=0.000000D+00  E= 2.039747D-01  Symmetry=t1u
              MO Center=  4.2D-17, -3.6D-16, -7.2D-16, r^2= 7.3D+00
   Bfn.  Coefficient  Atom+Function         Bfn.  Coefficient  Atom+Function  
  ----- ------------  ---------------      ----- ------------  ---------------
    61      1.282390  10 C  s               115     -1.282390  13 C  s         
     7     -0.799386   2 H  s                22      0.799386   5 H  s         
    43     -0.729928   9 C  s               133      0.729928  14 C  s         
     2      0.455005   1 H  s                27     -0.455005   6 H  s         
    84      0.342775  11 C  px              103      0.343042  12 C  py        

 Vector   33  Occ=0.000000D+00  E= 2.547893D-01  Symmetry=t2g
              MO Center=  2.1D-15, -4.6D-15, -1.7D-15, r^2= 1.2D+01
   Bfn.  Coefficient  Atom+Function         Bfn.  Coefficient  Atom+Function  
  ----- ------------  ---------------      ----- ------------  ---------------
     7      1.438503   2 H  s                22      1.438503   5 H  s         
    17     -1.083700   4 H  s                37     -1.083700   8 H  s         
     2     -0.709404   1 H  s                27     -0.709404   6 H  s         
    66      0.674834  10 C  px              120     -0.674834  13 C  px        
    68     -0.595203  10 C  pz              122      0.595203  13 C  pz        

 Vector   34  Occ=0.000000D+00  E= 2.547893D-01  Symmetry=t2g
              MO Center= -3.8D-15, -2.2D-15, -2.0D-15, r^2= 1.2D+01
   Bfn.  Coefficient  Atom+Function         Bfn.  Coefficient  Atom+Function  
  ----- ------------  ---------------      ----- ------------  ---------------
     2      1.542440   1 H  s                27      1.542440   6 H  s         
    17     -1.049633   4 H  s                37     -1.049633   8 H  s         
    50     -0.704216   9 C  pz              140      0.704216  14 C  pz        
    49     -0.649177   9 C  py              139      0.649177  14 C  py        
    12     -0.614107   3 H  s                32     -0.614107   7 H  s         

 Vector   35  Occ=0.000000D+00  E= 2.547893D-01  Symmetry=t2g
              MO Center=  1.1D-15,  1.3D-15,  1.8D-15, r^2= 1.2D+01
   Bfn.  Coefficient  Atom+Function         Bfn.  Coefficient  Atom+Function  
  ----- ------------  ---------------      ----- ------------  ---------------
    12      1.549726   3 H  s                32      1.549726   7 H  s         
     7     -0.905823   2 H  s                22     -0.905823   5 H  s         
    17     -0.792707   4 H  s                37     -0.792707   8 H  s         
    85     -0.709557  11 C  py              157      0.709557  15 C  py        
    86      0.639094  11 C  pz              158     -0.639094  15 C  pz        

 Vector   36  Occ=0.000000D+00  E= 2.588400D-01  Symmetry=t1u
              MO Center= -2.4D-16,  1.8D-15,  3.3D-16, r^2= 8.5D+00
   Bfn.  Coefficient  Atom+Function         Bfn.  Coefficient  Atom+Function  
  ----- ------------  ---------------      ----- ------------  ---------------
     2      0.993287   1 H  s                27     -0.993287   6 H  s         
    17     -0.882327   4 H  s                37      0.882327   8 H  s         
    49     -0.670358   9 C  py              139     -0.670358  14 C  py        
   103     -0.641740  12 C  py              175     -0.641740  16 C  py        
    67     -0.554595  10 C  py              121     -0.554595  13 C  py        

 Vector   37  Occ=0.000000D+00  E= 2.588400D-01  Symmetry=t1u
              MO Center=  3.5D-16, -1.2D-15, -2.1D-15, r^2= 8.5D+00
   Bfn.  Coefficient  Atom+Function         Bfn.  Coefficient  Atom+Function  
  ----- ------------  ---------------      ----- ------------  ---------------
    12      0.961799   3 H  s                32     -0.961799   7 H  s         
     2     -0.765078   1 H  s                27      0.765078   6 H  s         
    17     -0.698226   4 H  s                37      0.698226   8 H  s         
    84      0.672845  11 C  px              156      0.672845  15 C  px        
    48      0.622109   9 C  px              138      0.622109  14 C  px        

 Vector   38  Occ=0.000000D+00  E= 2.588400D-01  Symmetry=t1u
              MO Center=  1.6D-15,  6.9D-16, -9.5D-16, r^2= 8.5D+00
   Bfn.  Coefficient  Atom+Function         Bfn.  Coefficient  Atom+Function  
  ----- ------------  ---------------      ----- ------------  ---------------
     7      1.067312   2 H  s                22     -1.067312   5 H  s         
    12     -0.757703   3 H  s                32      0.757703   7 H  s         
    68     -0.683593  10 C  pz              122     -0.683593  13 C  pz        
    17     -0.648885   4 H  s                37      0.648885   8 H  s         
    86     -0.603742  11 C  pz              158     -0.603742  15 C  pz        

 Vector   39  Occ=0.000000D+00  E= 2.610234D-01  Symmetry=a2u
              MO Center=  1.1D-14, -8.6D-15,  7.3D-15, r^2= 1.3D+01
   Bfn.  Coefficient  Atom+Function         Bfn.  Coefficient  Atom+Function  
  ----- ------------  ---------------      ----- ------------  ---------------
    43      2.718538   9 C  s                61      2.718538  10 C  s         
    79      2.718538  11 C  s                97      2.718538  12 C  s         
   115     -2.718538  13 C  s               133     -2.718538  14 C  s         
   151     -2.718538  15 C  s               169     -2.718538  16 C  s         
     2      1.490564   1 H  s                 7      1.490564   2 H  s         

 Vector   40  Occ=0.000000D+00  E= 3.732083D-01  Symmetry=t1g
              MO Center= -5.7D-16,  1.3D-15, -4.1D-15, r^2= 4.5D+00
   Bfn.  Coefficient  Atom+Function         Bfn.  Coefficient  Atom+Function  
  ----- ------------  ---------------      ----- ------------  ---------------
    49     -0.671935   9 C  py               85      0.671935  11 C  py        
   139      0.671935  14 C  py              157     -0.671935  15 C  py        
    48      0.641783   9 C  px              102     -0.641783  12 C  px        
   138     -0.641783  14 C  px              174      0.641783  16 C  px        
    66     -0.527408  10 C  px               84      0.527408  11 C  px        

 Vector   41  Occ=0.000000D+00  E= 3.732083D-01  Symmetry=t1g
              MO Center= -3.7D-16, -8.9D-16, -7.8D-16, r^2= 4.5D+00
   Bfn.  Coefficient  Atom+Function         Bfn.  Coefficient  Atom+Function  
  ----- ------------  ---------------      ----- ------------  ---------------
    50      0.730000   9 C  pz               68     -0.730000  10 C  pz        
   122      0.730000  13 C  pz              140     -0.730000  14 C  pz        
    67     -0.635564  10 C  py              103      0.635564  12 C  py        
   121      0.635564  13 C  py              175     -0.635564  16 C  py        
    49     -0.498113   9 C  py               85      0.498113  11 C  py        

 Vector   42  Occ=0.000000D+00  E= 3.732083D-01  Symmetry=t1g
              MO Center=  6.1D-16, -1.2D-16, -7.6D-16, r^2= 4.5D+00
   Bfn.  Coefficient  Atom+Function         Bfn.  Coefficient  Atom+Function  
  ----- ------------  ---------------      ----- ------------  ---------------
    86      0.722121  11 C  pz              104     -0.722121  12 C  pz        
   158     -0.722121  15 C  pz              176      0.722121  16 C  pz        
    66      0.646702  10 C  px               84     -0.646702  11 C  px        
   120     -0.646702  13 C  px              156      0.646702  15 C  px        
    48      0.489534   9 C  px              102     -0.489534  12 C  px        

 Vector   43  Occ=0.000000D+00  E= 4.434925D-01  Symmetry=t2g
              MO Center= -6.3D-15, -1.4D-14, -5.7D-15, r^2= 6.8D+00
   Bfn.  Coefficient  Atom+Function         Bfn.  Coefficient  Atom+Function  
  ----- ------------  ---------------      ----- ------------  ---------------
    43      3.537802   9 C  s               133      3.537802  14 C  s         
    61     -2.305744  10 C  s               115     -2.305744  13 C  s         
    50     -1.717901   9 C  pz              140      1.717901  14 C  pz        
    68      1.644872  10 C  pz              122     -1.644872  13 C  pz        
    48     -1.385469   9 C  px              138      1.385469  14 C  px        

 Vector   44  Occ=0.000000D+00  E= 4.434925D-01  Symmetry=t2g
              MO Center=  2.8D-16,  9.0D-15, -2.2D-16, r^2= 6.8D+00
   Bfn.  Coefficient  Atom+Function         Bfn.  Coefficient  Atom+Function  
  ----- ------------  ---------------      ----- ------------  ---------------
    97      3.592764  12 C  s               169      3.592764  16 C  s         
    79     -1.826805  11 C  s               151     -1.826805  15 C  s         
    61     -1.627876  10 C  s               115     -1.627876  13 C  s         
   104      1.611731  12 C  pz              176     -1.611731  16 C  pz        
   103      1.560388  12 C  py              175     -1.560388  16 C  py        

 Vector   45  Occ=0.000000D+00  E= 4.434925D-01  Symmetry=t2g
              MO Center=  7.5D-15,  5.2D-15, -2.2D-14, r^2= 6.8D+00
   Bfn.  Coefficient  Atom+Function         Bfn.  Coefficient  Atom+Function  
  ----- ------------  ---------------      ----- ------------  ---------------
    79      3.286717  11 C  s               151      3.286717  15 C  s         
    61     -2.493837  10 C  s               115     -2.493837  13 C  s         
    84      1.686760  11 C  px              156     -1.686760  15 C  px        
    66     -1.639764  10 C  px              120      1.639764  13 C  px        
    85     -1.374695  11 C  py              157      1.374695  15 C  py        

 Vector   46  Occ=0.000000D+00  E= 4.955083D-01  Symmetry=a1g
              MO Center=  1.8D-15,  4.1D-15, -1.4D-15, r^2= 5.6D+00
   Bfn.  Coefficient  Atom+Function         Bfn.  Coefficient  Atom+Function  
  ----- ------------  ---------------      ----- ------------  ---------------
     1      0.304637   1 H  s                 6      0.304637   2 H  s         
    11      0.304637   3 H  s                16      0.304637   4 H  s         
    21      0.304637   5 H  s                26      0.304637   6 H  s         
    31      0.304637   7 H  s                36      0.304637   8 H  s         
     2     -0.235392   1 H  s                 7     -0.235392   2 H  s         

 Vector   47  Occ=0.000000D+00  E= 5.263564D-01  Symmetry=eu
              MO Center= -5.0D-15, -5.9D-15,  3.3D-15, r^2= 5.0D+00
   Bfn.  Coefficient  Atom+Function         Bfn.  Coefficient  Atom+Function  
  ----- ------------  ---------------      ----- ------------  ---------------
    48      1.069507   9 C  px               66     -1.069507  10 C  px        
    84     -1.069507  11 C  px              102      1.069507  12 C  px        
   120     -1.069507  13 C  px              138      1.069507  14 C  px        
   156     -1.069507  15 C  px              174      1.069507  16 C  px        
    49     -1.062165   9 C  py               67      1.062165  10 C  py        


 center of mass
 --------------
 x =   0.00000000 y =   0.00000000 z =   0.00000000

 moments of inertia (a.u.)
 ------------------
         535.693401356527           0.000000000000           0.000000000000
           0.000000000000         535.693401356527           0.000000000000
           0.000000000000           0.000000000000         535.693401356527

  Mulliken analysis of the total density
  --------------------------------------

    Atom       Charge   Shell Charges
 -----------   ------   -------------------------------------------------------
    1 H    1     1.01   0.76  0.22  0.03
    2 H    1     1.01   0.76  0.22  0.03
    3 H    1     1.01   0.76  0.22  0.03
    4 H    1     1.01   0.76  0.22  0.03
    5 H    1     1.01   0.76  0.22  0.03
    6 H    1     1.01   0.76  0.22  0.03
    7 H    1     1.01   0.76  0.22  0.03
    8 H    1     1.01   0.76  0.22  0.03
    9 C    6     5.99   2.01  0.62  0.60 -0.00  1.99  0.68  0.00  0.09
   10 C    6     5.99   2.01  0.62  0.60 -0.00  1.99  0.68  0.00  0.09
   11 C    6     5.99   2.01  0.62  0.60 -0.00  1.99  0.68  0.00  0.09
   12 C    6     5.99   2.01  0.62  0.60 -0.00  1.99  0.68  0.00  0.09
   13 C    6     5.99   2.01  0.62  0.60 -0.00  1.99  0.68  0.00  0.09
   14 C    6     5.99   2.01  0.62  0.60 -0.00  1.99  0.68  0.00  0.09
   15 C    6     5.99   2.01  0.62  0.60 -0.00  1.99  0.68  0.00  0.09
   16 C    6     5.99   2.01  0.62  0.60 -0.00  1.99  0.68  0.00  0.09

       Multipole analysis of the density wrt the origin
       ------------------------------------------------

     L   x y z        total         open         nuclear
     -   - - -        -----         ----         -------
     0   0 0 0     -0.000000      0.000000     56.000000

     1   1 0 0     -0.000000      0.000000      0.000000
     1   0 1 0     -0.000000      0.000000      0.000000
     1   0 0 1      0.000000      0.000000      0.000000

     2   2 0 0    -35.113099      0.000000    162.123649
     2   1 1 0      0.000000      0.000000      0.000000
     2   1 0 1      0.000000      0.000000      0.000000
     2   0 2 0    -35.113099      0.000000    162.123649
     2   0 1 1     -0.000000      0.000000      0.000000
     2   0 0 2    -35.113099      0.000000    162.123649

                   NWChem MP2 Semi-direct Energy/Gradient Module
                   ---------------------------------------------


                     cubane MP2/cc-pCVDZ geometry optimization


  Basis functions       =    184
  Molecular orbitals    =    184
  Frozen core           =      0
  Frozen virtuals       =      0
  Active alpha occupied =     28
  Active beta occupied  =     28
  Active alpha virtual  =    156
  Active beta virtual   =    156
  Use MO symmetry       = F
  Use skeleton AO sym   = T

  AO/Fock/Back tols     =   1.0D-09  1.0D-09  1.0D-09

 GA uses MA = F    GA memory limited = T

 Available: 
  local mem=  2.62D+07
 global mem=  2.60D+07
 local disk=  1.58D+10
  mp2_memr nvloc                   156
  nvloc new                   156
   1 passes of  28:        3249592                    1597271                 170753316.

 Semi-direct pass number   1 of   1  for RHF alpha+beta  at       29.4s
  vrange nnbf                 16188
Node 0 wrote    565.7 Mb in      0.7 s     Agg I/O rate:   764.4 Mb/s
 Done moints_semi at      118.2s
  mp2_eaf for ta                     -1
  mp2_eaf for tb                     -1
 Done maket at      128.9s
 Done pijab at      131.0s
 Done wijab at      133.6s
 Done lai at      160.3s
 Done nonsep at      179.8s
 Done multipass loop at      179.8s


          -------------------------------------------
          SCF energy                -307.418404754494
          Correlation energy          -1.361471285516
          Singlet pairs               -0.917713597055
          Triplet pairs               -0.443757688462
          Total MP2 energy          -308.779876040010
          -------------------------------------------



          ---------------------------------------------------
                    Spin Component Scaled (SCS) MP2
          Same spin pairs                     -0.295838458975
          Same spin scaling factor             0.333333333333
          Opposite spin pairs                 -1.065632826542
          Opposite spin scaling fact.          1.200000000000
          SCS-MP2 correlation energy          -1.377372211508
          Total SCS-MP2 energy              -308.795776966002
          ---------------------------------------------------

                                NWChem CPHF Module
                                ------------------


    scftype = RHF 
    nclosed =   28
      nopen =    0
  variables =     4368
  tolerance =   1.0D-04
  max. iter =  100

 SCF residual:    4.5732621117570871E-008

            ----- linear solve (tol: 1.0E-04 prod-acc: 3.1E-12) -----

               iter nbas    rnorm     rnorm-scal   ratio     time
               ---- ---- ----------- ----------- --------- -------
                  1    1  3.1874E-02  1.5580E-01    0.0000   239.2
                  2    2  1.0983E-02  5.3686E-02    0.3446   241.5
                  3    3  1.5283E-03  7.4707E-03    0.1392   243.7
                  4    4  3.1604E-04  1.5448E-03    0.2068   245.8
                  5    5  2.9753E-05  1.4544E-04    0.0941   247.5
                  6    6  3.7746E-06  1.8451E-05    0.1269   249.3

 CPHF converged to   1.8D-05 in    6 iters

                Dipole Moments (a.u.)
                --------------
         Nuclear       SCF       SCF+MP2
       ----------- ----------- -----------
 X       0.000000   -0.000000   -0.000000
 Y       0.000000   -0.000000   -0.000000
 Z       0.000000    0.000000    0.000000


 MP2 RHF      natural orbital occupation numbers


              1      
    1    1.9988
    2    1.9988
    3    1.9988
    4    1.9988
    5    1.9988
    6    1.9988
    7    1.9988
    8    1.9988
    9    1.9855
   10    1.9796
   11    1.9796
   12    1.9796
   13    1.9742
   14    1.9742
   15    1.9742
   16    1.9694
   17    1.9656
   18    1.9599
   19    1.9599
   20    1.9599
   21    1.9520
   22    1.9520
   23    1.9474
   24    1.9474
   25    1.9474
   26    1.9431
   27    1.9431
   28    1.9431
   29    0.0337
   30    0.0337
   31    0.0337
   32    0.0307
   33    0.0307
   34    0.0307
   35    0.0252
   36    0.0252
   37    0.0252
   38    0.0251
   39    0.0251
   40    0.0208
   41    0.0196
   42    0.0181
   43    0.0181
   44    0.0181
   45    0.0178
   46    0.0178
   47    0.0178
   48    0.0138
   49    0.0138
   50    0.0135
   51    0.0128
   52    0.0128
   53    0.0128
   54    0.0122
   55    0.0122
   56    0.0115
   57    0.0110
   58    0.0110
   59    0.0110
   60    0.0067
   61    0.0067
   62    0.0067
   63    0.0058
   64    0.0058
   65    0.0058
   66    0.0037
   67    0.0035
   68    0.0035
   69    0.0035
   70    0.0034
   71    0.0034
   72    0.0034
   73    0.0034
   74    0.0034
   75    0.0034
   76    0.0033
   77    0.0033
   78    0.0033
   79    0.0029
   80    0.0029
   81    0.0027
   82    0.0027
   83    0.0027
   84    0.0023
   85    0.0020
   86    0.0020
   87    0.0019
   88    0.0019
   89    0.0019
   90    0.0017
   91    0.0017
   92    0.0017
   93    0.0016
   94    0.0016
   95    0.0016
   96    0.0016
   97    0.0016
   98    0.0016
   99    0.0015
  100    0.0013
  101    0.0013
  102    0.0013
  103    0.0010
  104    0.0010
  105    0.0010
  106    0.0009
  107    0.0009
  108    0.0009
  109    0.0009
  110    0.0008
  111    0.0008
  112    0.0008
  113    0.0007
  114    0.0007
  115    0.0007
  116    0.0007
  117    0.0006
  118    0.0006
  119    0.0006
  120    0.0006
  121    0.0005
  122    0.0004
  123    0.0004
  124    0.0004
  125    0.0004
  126    0.0004
  127    0.0004
  128    0.0004
  129    0.0004
  130    0.0004
  131    0.0004
  132    0.0004
  133    0.0004
  134    0.0004
  135    0.0004
  136    0.0004
  137    0.0003
  138    0.0003
  139    0.0003
  140    0.0003
  141    0.0003
  142    0.0003
  143    0.0003
  144    0.0002
  145    0.0002
  146    0.0002
  147    0.0002
  148    0.0002
  149    0.0002
  150    0.0002
  151    0.0002
  152    0.0002
  153    0.0002
  154    0.0002
  155    0.0002
  156    0.0002
  157    0.0002
  158    0.0002
  159    0.0002
  160    0.0002
  161    0.0002
  162    0.0002
  163    0.0002
  164    0.0002
  165    0.0002
  166    0.0002
  167    0.0002
  168    0.0002
  169    0.0002
  170    0.0002
  171    0.0001
  172    0.0001
  173    0.0001
  174    0.0001
  175    0.0001
  176    0.0001
  177    0.0001
  178    0.0001
  179    0.0001
  180    0.0001
  181    0.0000
  182    0.0000
  183    0.0000
  184    0.0000

  MP2 natural orbitals output to ./cubane.mp2nos

  Using symmetry


                         mp2 ENERGY GRADIENTS

    atom               coordinates                        gradient
                 x          y          z           x          y          z
   1 H       2.665647   2.665647   2.665647   -0.005173  -0.005173  -0.005173
   2 H      -2.665647  -2.665647   2.665647    0.005173   0.005173  -0.005173
   3 H      -2.665647   2.665647  -2.665647    0.005173  -0.005173   0.005173
   4 H       2.665647  -2.665647  -2.665647   -0.005173   0.005173   0.005173
   5 H       2.665647   2.665647  -2.665647   -0.005173  -0.005173   0.005173
   6 H      -2.665647  -2.665647  -2.665647    0.005173   0.005173   0.005173
   7 H       2.665647  -2.665647   2.665647   -0.005173   0.005173  -0.005173
   8 H      -2.665647   2.665647   2.665647    0.005173  -0.005173  -0.005173
   9 C       1.480978   1.480978   1.480978    0.002052   0.002052   0.002052
  10 C      -1.480978  -1.480978   1.480978   -0.002052  -0.002052   0.002052
  11 C      -1.480978   1.480978  -1.480978   -0.002052   0.002052  -0.002052
  12 C       1.480978  -1.480978  -1.480978    0.002052  -0.002052  -0.002052
  13 C       1.480978   1.480978  -1.480978    0.002052   0.002052  -0.002052
  14 C      -1.480978  -1.480978  -1.480978   -0.002052  -0.002052  -0.002052
  15 C       1.480978  -1.480978   1.480978    0.002052  -0.002052   0.002052
  16 C      -1.480978   1.480978   1.480978   -0.002052   0.002052   0.002052

                 ----------------------------------------
                 |  Time  |  1-e(secs)   |  2-e(secs)   |
                 ----------------------------------------
                 |  CPU   |       0.01   |       4.70   |
                 ----------------------------------------
                 |  WALL  |       0.01   |       4.71   |
                 ----------------------------------------
 -----------------------
 Performance information
 -----------------------

 Timer overhead =  4.00D-07 seconds/call

               Nr. of calls         CPU time (s)                 Wall time (s)                GFlops
             ---------------    -------------------     ------------------------------   -------------------
Name         Min   Avg   Max    Min     Avg     Max     Min     Avg     Max   Mx/calls   Min     Max     Sum
mp2: moin     1     1     1    89.     89.     89.      89.     89.     89.     89.      0.0     0.0     0.0   
mp2: make     1     1     1    16.     16.     16.      11.     11.     11.     11.      0.0     0.0     0.0   
mp2: pija     1     1     1    2.5     2.5     2.5      2.1     2.1     2.1     2.1      0.0     0.0     0.0   
mp2: wija     1     1     1    3.5     3.5     3.5      2.6     2.6     2.6     2.6      0.0     0.0     0.0   
mp2: lai      1     1     1    39.     39.     39.      27.     27.     27.     27.      0.0     0.0     0.0   
mp2: back     1     1     1    11.     11.     11.      7.5     7.5     7.5     7.5      0.0     0.0     0.0   
mp2: nons     1     1     1    11.     11.     11.      12.     12.     12.     12.      0.0     0.0     0.0   
mp2: laif     1     1     1    32.     32.     32.      34.     34.     34.     34.      0.0     0.0     0.0   
mp2: cphf     1     1     1    15.     15.     15.      14.     14.     14.     14.      0.0     0.0     0.0   
mp2: wijf     1     1     1    32.     32.     32.      32.     32.     32.     32.      0.0     0.0     0.0   
mp2: sep      1     1     1    4.8     4.8     4.8      4.9     4.9     4.9     4.9      0.0     0.0     0.0   
mp2: tota     1     1     1   2.55E+2 2.55E+2 2.55E+2  2.37E+2 2.37E+2 2.37E+2 2.37E+2   0.0     0.0     0.0   

 The average no. of pstat calls per process was 1.20D+01
 with a timing overhead of 4.80D-06s


@ Step       Energy      Delta E   Gmax     Grms     Xrms     Xmax   Walltime
@ ---- ---------------- -------- -------- -------- -------- -------- --------
@    0    -308.77987604  0.0D+00  0.00896  0.00208  0.00000  0.00000    266.1
                                                                    



                                Z-matrix (autoz)
                                -------- 

 Units are Angstrom for bonds and degrees for angles

      Type          Name      I     J     K     L     M      Value     Gradient
      ----------- --------  ----- ----- ----- ----- ----- ---------- ----------
    1 Stretch                  1     9                       1.08582   -0.00896
    2 Stretch                  2    10                       1.08582   -0.00896
    3 Stretch                  3    11                       1.08582   -0.00896
    4 Stretch                  4    12                       1.08582   -0.00896
    5 Stretch                  5    13                       1.08582   -0.00896
    6 Stretch                  6    14                       1.08582   -0.00896
    7 Stretch                  7    15                       1.08582   -0.00896
    8 Stretch                  8    16                       1.08582   -0.00896
    9 Stretch                  9    13                       1.56740   -0.00312
   10 Stretch                  9    15                       1.56740   -0.00312
   11 Stretch                  9    16                       1.56740   -0.00312
   12 Stretch                 10    14                       1.56740   -0.00312
   13 Stretch                 10    15                       1.56740   -0.00312
   14 Stretch                 10    16                       1.56740   -0.00312
   15 Stretch                 11    13                       1.56740   -0.00312
   16 Stretch                 11    14                       1.56740   -0.00312
   17 Stretch                 11    16                       1.56740   -0.00312
   18 Stretch                 12    13                       1.56740   -0.00312
   19 Stretch                 12    14                       1.56740   -0.00312
   20 Stretch                 12    15                       1.56740   -0.00312
   21 Bend                     1     9    13               125.26439   -0.00000
   22 Bend                     1     9    15               125.26439    0.00000
   23 Bend                     1     9    16               125.26439    0.00000
   24 Bend                     2    10    14               125.26439   -0.00000
   25 Bend                     2    10    15               125.26439    0.00000
   26 Bend                     2    10    16               125.26439   -0.00000
   27 Bend                     3    11    13               125.26439    0.00000
   28 Bend                     3    11    14               125.26439    0.00000
   29 Bend                     3    11    16               125.26439   -0.00000
   30 Bend                     4    12    13               125.26439    0.00000
   31 Bend                     4    12    14               125.26439    0.00000
   32 Bend                     4    12    15               125.26439   -0.00000
   33 Bend                     5    13     9               125.26439   -0.00000
   34 Bend                     5    13    11               125.26439    0.00000
   35 Bend                     5    13    12               125.26439    0.00000
[...]
   53 Bend                    10    15    12                90.00000    0.00000
   54 Bend                    10    16    11                90.00000    0.00000
   55 Bend                    11    13    12                90.00000    0.00000
   56 Bend                    11    14    12                90.00000    0.00000
   57 Bend                    13     9    15                90.00000    0.00000
   58 Bend                    13     9    16                90.00000    0.00000
   59 Bend                    13    11    14                90.00000    0.00000
   60 Bend                    13    11    16                90.00000    0.00000
   61 Bend                    13    12    14                90.00000    0.00000
   62 Bend                    13    12    15                90.00000    0.00000
   63 Bend                    14    10    15                90.00000    0.00000
   64 Bend                    14    10    16                90.00000    0.00000
   65 Bend                    14    11    16                90.00000    0.00000
   66 Bend                    14    12    15                90.00000    0.00000
   67 Bend                    15     9    16                90.00000    0.00000
   68 Bend                    15    10    16                90.00000    0.00000
   69 Torsion                  1     9    13     5           0.00000    0.00000
   70 Torsion                  1     9    13    11        -135.00000    0.00000
   71 Torsion                  1     9    13    12         135.00000   -0.00000
   72 Torsion                  1     9    15     7           0.00000    0.00000
   73 Torsion                  1     9    15    10         135.00000   -0.00000
   74 Torsion                  1     9    15    12        -135.00000    0.00000
   75 Torsion                  1     9    16     8           0.00000    0.00000
   76 Torsion                  1     9    16    10        -135.00000    0.00000
   77 Torsion                  1     9    16    11         135.00000   -0.00000
   78 Torsion                  2    10    14     6           0.00000    0.00000
   79 Torsion                  2    10    14    11         135.00000   -0.00000
   80 Torsion                  2    10    14    12        -135.00000    0.00000
   81 Torsion                  2    10    15     7           0.00000    0.00000
   82 Torsion                  2    10    15     9        -135.00000    0.00000
   83 Torsion                  2    10    15    12         135.00000   -0.00000
   84 Torsion                  2    10    16     8           0.00000    0.00000
   85 Torsion                  2    10    16     9         135.00000   -0.00000
   86 Torsion                  2    10    16    11        -135.00000    0.00000
   87 Torsion                  3    11    13     5           0.00000    0.00000
   88 Torsion                  3    11    13     9         135.00000   -0.00000
   89 Torsion                  3    11    13    12        -135.00000    0.00000
   90 Torsion                  3    11    14     6           0.00000    0.00000
   91 Torsion                  3    11    14    10        -135.00000    0.00000
   92 Torsion                  3    11    14    12         135.00000   -0.00000
   93 Torsion                  3    11    16     8           0.00000    0.00000
   94 Torsion                  3    11    16     9        -135.00000    0.00000
   95 Torsion                  3    11    16    10         135.00000   -0.00000
   96 Torsion                  4    12    13     5           0.00000    0.00000
   97 Torsion                  4    12    13     9        -135.00000    0.00000
   98 Torsion                  4    12    13    11         135.00000   -0.00000
   99 Torsion                  4    12    14     6           0.00000    0.00000
  100 Torsion                  4    12    14    10         135.00000   -0.00000
  101 Torsion                  4    12    14    11        -135.00000    0.00000
  102 Torsion                  4    12    15     7           0.00000    0.00000
  103 Torsion                  4    12    15     9         135.00000   -0.00000
  104 Torsion                  4    12    15    10        -135.00000    0.00000
  105 Torsion                  5    13     9    15        -135.00000    0.00000
  106 Torsion                  5    13     9    16         135.00000   -0.00000
  107 Torsion                  5    13    11    14         135.00000   -0.00000
  108 Torsion                  5    13    11    16        -135.00000    0.00000
  109 Torsion                  5    13    12    14        -135.00000    0.00000
  110 Torsion                  5    13    12    15         135.00000   -0.00000
  111 Torsion                  6    14    10    15         135.00000   -0.00000
  112 Torsion                  6    14    10    16        -135.00000    0.00000
  113 Torsion                  6    14    11    13        -135.00000    0.00000
  114 Torsion                  6    14    11    16         135.00000   -0.00000
  115 Torsion                  6    14    12    13         135.00000   -0.00000
  116 Torsion                  6    14    12    15        -135.00000    0.00000
  117 Torsion                  7    15     9    13         135.00000   -0.00000
  118 Torsion                  7    15     9    16        -135.00000    0.00000
  119 Torsion                  7    15    10    14        -135.00000    0.00000
  120 Torsion                  7    15    10    16         135.00000   -0.00000
  121 Torsion                  7    15    12    13        -135.00000    0.00000
  122 Torsion                  7    15    12    14         135.00000   -0.00000
  123 Torsion                  8    16     9    13        -135.00000    0.00000
  124 Torsion                  8    16     9    15         135.00000   -0.00000
  125 Torsion                  8    16    10    14         135.00000   -0.00000
  126 Torsion                  8    16    10    15        -135.00000    0.00000
  127 Torsion                  8    16    11    13         135.00000   -0.00000
  128 Torsion                  8    16    11    14        -135.00000    0.00000
  129 Torsion                  9    13    11    14         -90.00000    0.00000
  130 Torsion                  9    13    11    16           0.00000    0.00000
  131 Torsion                  9    13    12    14          90.00000    0.00000
  132 Torsion                  9    13    12    15           0.00000    0.00000
  133 Torsion                  9    15    10    14          90.00000    0.00000
  134 Torsion                  9    15    10    16           0.00000    0.00000
  135 Torsion                  9    15    12    13           0.00000    0.00000
  136 Torsion                  9    15    12    14         -90.00000    0.00000
  137 Torsion                  9    16    10    14         -90.00000    0.00000
  138 Torsion                  9    16    10    15           0.00000    0.00000
  139 Torsion                  9    16    11    13           0.00000    0.00000
  140 Torsion                  9    16    11    14          90.00000    0.00000
  141 Torsion                 10    14    11    13          90.00000    0.00000
  142 Torsion                 10    14    11    16           0.00000    0.00000
  143 Torsion                 10    14    12    13         -90.00000    0.00000
  144 Torsion                 10    14    12    15           0.00000    0.00000
  145 Torsion                 10    15     9    13         -90.00000    0.00000
  146 Torsion                 10    15     9    16           0.00000    0.00000
  147 Torsion                 10    15    12    13          90.00000    0.00000
  148 Torsion                 10    15    12    14           0.00000    0.00000
  149 Torsion                 10    16     9    13          90.00000    0.00000
  150 Torsion                 10    16     9    15           0.00000    0.00000
  151 Torsion                 10    16    11    13         -90.00000    0.00000
  152 Torsion                 10    16    11    14           0.00000    0.00000
  153 Torsion                 11    13     9    15          90.00000    0.00000
  154 Torsion                 11    13     9    16           0.00000    0.00000
  155 Torsion                 11    13    12    14           0.00000    0.00000
  156 Torsion                 11    13    12    15         -90.00000    0.00000
  157 Torsion                 11    14    10    15         -90.00000    0.00000
  158 Torsion                 11    14    10    16           0.00000    0.00000
  159 Torsion                 11    14    12    13           0.00000    0.00000
  160 Torsion                 11    14    12    15          90.00000    0.00000
  161 Torsion                 11    16     9    13           0.00000    0.00000
  162 Torsion                 11    16     9    15         -90.00000    0.00000
  163 Torsion                 11    16    10    14           0.00000    0.00000
  164 Torsion                 11    16    10    15          90.00000    0.00000
  165 Torsion                 12    13     9    15           0.00000    0.00000
  166 Torsion                 12    13     9    16         -90.00000    0.00000
  167 Torsion                 12    13    11    14           0.00000    0.00000
  168 Torsion                 12    13    11    16          90.00000    0.00000
  169 Torsion                 12    14    10    15           0.00000    0.00000
  170 Torsion                 12    14    10    16          90.00000    0.00000
  171 Torsion                 12    14    11    13           0.00000    0.00000
  172 Torsion                 12    14    11    16         -90.00000    0.00000
  173 Torsion                 12    15     9    13           0.00000    0.00000
  174 Torsion                 12    15     9    16          90.00000    0.00000
  175 Torsion                 12    15    10    14           0.00000    0.00000
  176 Torsion                 12    15    10    16         -90.00000    0.00000

 ==============================================================================
                                internuclear distances
 ------------------------------------------------------------------------------
       center one      |      center two      | atomic units |  angstroms
 ------------------------------------------------------------------------------
    9 C                |   1 H                |     2.07628  |     1.09872
   10 C                |   2 H                |     2.07628  |     1.09872
   11 C                |   3 H                |     2.07628  |     1.09872
   12 C                |   4 H                |     2.07628  |     1.09872
   13 C                |   5 H                |     2.07628  |     1.09872
   13 C                |   9 C                |     2.97335  |     1.57343
   13 C                |  11 C                |     2.97335  |     1.57343
   13 C                |  12 C                |     2.97335  |     1.57343
   14 C                |   6 H                |     2.07628  |     1.09872
   14 C                |  10 C                |     2.97335  |     1.57343
   14 C                |  11 C                |     2.97335  |     1.57343
   14 C                |  12 C                |     2.97335  |     1.57343
   15 C                |   7 H                |     2.07628  |     1.09872
   15 C                |   9 C                |     2.97335  |     1.57343
   15 C                |  10 C                |     2.97335  |     1.57343
   15 C                |  12 C                |     2.97335  |     1.57343
   16 C                |   8 H                |     2.07628  |     1.09872
   16 C                |   9 C                |     2.97335  |     1.57343
   16 C                |  10 C                |     2.97335  |     1.57343
   16 C                |  11 C                |     2.97335  |     1.57343
 ------------------------------------------------------------------------------
                         number of included internuclear distances:         20
 ==============================================================================



 ==============================================================================
                                 internuclear angles
 ------------------------------------------------------------------------------
        center 1       |       center 2       |       center 3       |  degrees
 ------------------------------------------------------------------------------
    1 H                |   9 C                |  13 C                |   125.26
    1 H                |   9 C                |  15 C                |   125.26
    1 H                |   9 C                |  16 C                |   125.26
   13 C                |   9 C                |  15 C                |    90.00
   13 C                |   9 C                |  16 C                |    90.00
   15 C                |   9 C                |  16 C                |    90.00
    2 H                |  10 C                |  14 C                |   125.26
    2 H                |  10 C                |  15 C                |   125.26
    2 H                |  10 C                |  16 C                |   125.26
   14 C                |  10 C                |  15 C                |    90.00
   14 C                |  10 C                |  16 C                |    90.00
   15 C                |  10 C                |  16 C                |    90.00
    3 H                |  11 C                |  13 C                |   125.26
    3 H                |  11 C                |  14 C                |   125.26
    3 H                |  11 C                |  16 C                |   125.26
   13 C                |  11 C                |  14 C                |    90.00
   13 C                |  11 C                |  16 C                |    90.00
   14 C                |  11 C                |  16 C                |    90.00
    4 H                |  12 C                |  13 C                |   125.26
    4 H                |  12 C                |  14 C                |   125.26
    4 H                |  12 C                |  15 C                |   125.26
   13 C                |  12 C                |  14 C                |    90.00
   13 C                |  12 C                |  15 C                |    90.00
   14 C                |  12 C                |  15 C                |    90.00
    5 H                |  13 C                |   9 C                |   125.26
    5 H                |  13 C                |  11 C                |   125.26
    5 H                |  13 C                |  12 C                |   125.26
    9 C                |  13 C                |  11 C                |    90.00
    9 C                |  13 C                |  12 C                |    90.00
   11 C                |  13 C                |  12 C                |    90.00
    6 H                |  14 C                |  10 C                |   125.26
    6 H                |  14 C                |  11 C                |   125.26
    6 H                |  14 C                |  12 C                |   125.26
   10 C                |  14 C                |  11 C                |    90.00
   10 C                |  14 C                |  12 C                |    90.00
   11 C                |  14 C                |  12 C                |    90.00
    7 H                |  15 C                |   9 C                |   125.26
    7 H                |  15 C                |  10 C                |   125.26
    7 H                |  15 C                |  12 C                |   125.26
    9 C                |  15 C                |  10 C                |    90.00
    9 C                |  15 C                |  12 C                |    90.00
   10 C                |  15 C                |  12 C                |    90.00
    8 H                |  16 C                |   9 C                |   125.26
    8 H                |  16 C                |  10 C                |   125.26
    8 H                |  16 C                |  11 C                |   125.26
    9 C                |  16 C                |  10 C                |    90.00
    9 C                |  16 C                |  11 C                |    90.00
   10 C                |  16 C                |  11 C                |    90.00
 ------------------------------------------------------------------------------
                            number of included internuclear angles:         48
 ==============================================================================




 Task  times  cpu:     1117.5s     wall:     1254.2s
 Summary of allocated global arrays
-----------------------------------
  No active global arrays



                         GA Statistics for process    0
                         ------------------------------

       create   destroy   get      put      acc     scatter   gather  read&inc
calls: 2020     2020     7.36e+06 1.02e+06 4.61e+06    0        0     4.88e+04 
number of processes/call 1.00e+00 1.00e+00 1.00e+00 0.00e+00 0.00e+00
bytes total:             5.69e+09 7.36e+09 2.65e+09 0.00e+00 0.00e+00 3.90e+05
bytes remote:            0.00e+00 0.00e+00 0.00e+00 0.00e+00 0.00e+00 0.00e+00
Max memory consumed for GA by this process: 209681672 bytes
MA_summarize_allocated_blocks: starting scan ...
MA_summarize_allocated_blocks: scan completed: 0 heap blocks, 0 stack blocks
MA usage statistics:

	allocation statistics:
					      heap	     stack
					      ----	     -----
	current number of blocks	         0	         0
	maximum number of blocks	        25	        36
	current total bytes		         0	         0
	maximum total bytes		     93352	 106206760
	maximum total K-bytes		        94	    106207
	maximum total M-bytes		         1	       107


                                NWChem Input Module
                                -------------------





                                     CITATION
                                     --------
                Please cite the following reference when publishing
                           results obtained with NWChem:

                 M. Valiev, E.J. Bylaska, N. Govind, K. Kowalski,
              T.P. Straatsma, H.J.J. van Dam, D. Wang, J. Nieplocha,
                        E. Apra, T.L. Windus, W.A. de Jong
                 "NWChem: a comprehensive and scalable open-source
                  solution for large scale molecular simulations"
                      Comput. Phys. Commun. 181, 1477 (2010)
                           doi:10.1016/j.cpc.2010.04.018

                                      AUTHORS
                                      -------
          E. Apra, E. J. Bylaska, W. A. de Jong, N. Govind, K. Kowalski,
       T. P. Straatsma, M. Valiev, H. J. J. van Dam, D. Wang, T. L. Windus,
        J. Hammond, J. Autschbach, K. Bhaskaran-Nair, J. Brabec, K. Lopata,
       S. A. Fischer, S. Krishnamoorthy, W. Ma, M. Klemm, O. Villa, Y. Chen,
    V. Anisimov, F. Aquino, S. Hirata, M. T. Hackler, T. Risthaus, M. Malagoli,
       A. Marenich, A. Otero-de-la-Roza, J. Mullin, P. Nichols, R. Peverati,
     J. Pittner, Y. Zhao, P.-D. Fan, A. Fonari, M. Williamson, R. J. Harrison,
       J. R. Rehr, M. Dupuis, D. Silverstein, D. M. A. Smith, J. Nieplocha,
        V. Tipparaju, M. Krishnan, B. E. Van Kuiken, A. Vazquez-Mayagoitia,
        L. Jensen, M. Swart, Q. Wu, T. Van Voorhis, A. A. Auer, M. Nooijen,
      L. D. Crosby, E. Brown, G. Cisneros, G. I. Fann, H. Fruchtl, J. Garza,
        K. Hirao, R. A. Kendall, J. A. Nichols, K. Tsemekhman, K. Wolinski,
     J. Anchell, D. E. Bernholdt, P. Borowski, T. Clark, D. Clerc, H. Dachsel,
   M. J. O. Deegan, K. Dyall, D. Elwood, E. Glendening, M. Gutowski, A. C. Hess,
         J. Jaffe, B. G. Johnson, J. Ju, R. Kobayashi, R. Kutteh, Z. Lin,
   R. Littlefield, X. Long, B. Meng, T. Nakajima, S. Niu, L. Pollack, M. Rosing,
   K. Glaesemann, G. Sandrone, M. Stave, H. Taylor, G. Thomas, J. H. van Lenthe,
                               A. T. Wong, Z. Zhang.

 Total times  cpu:     1117.7s     wall:     1255.2s
