 argument  1 = cubane.nw
                                         
                                         


              Northwest Computational Chemistry Package (NWChem) 6.6
              ------------------------------------------------------


                    Environmental Molecular Sciences Laboratory
                       Pacific Northwest National Laboratory
                                Richland, WA 99352

                              Copyright (c) 1994-2015
                       Pacific Northwest National Laboratory
                            Battelle Memorial Institute

             NWChem is an open-source computational chemistry package
                        distributed under the terms of the
                      Educational Community License (ECL) 2.0
             A copy of the license is included with this distribution
                              in the LICENSE.TXT file

                                  ACKNOWLEDGMENT
                                  --------------

            This software and its documentation were developed at the
            EMSL at Pacific Northwest National Laboratory, a multiprogram
            national laboratory, operated for the U.S. Department of Energy
            by Battelle under Contract Number DE-AC05-76RL01830. Support
            for this work was provided by the Department of Energy Office
            of Biological and Environmental Research, Office of Basic
            Energy Sciences, and the Office of Advanced Scientific Computing.


           Job information
           ---------------

    hostname        = konkov-work
    program         = nwchem
    date            = Sun Feb 26 18:41:54 2017

    compiled        = Mon_Feb_15_08:24:17_2016
    source          = /build/nwchem-MF0R1k/nwchem-6.6+r27746
    nwchem branch   = 6.6
    nwchem revision = 27746
    ga revision     = 10594
    input           = cubane.nw
    prefix          = cubane.
    data base       = ./cubane.db
    status          = startup
    nproc           =        1
    time left       =     -1s



           Memory information
           ------------------

    heap     =   13107200 doubles =    100.0 Mbytes
    stack    =  131071997 doubles =   1000.0 Mbytes
    global   =  131072000 doubles =   1000.0 Mbytes (distinct from heap & stack)
    total    =  275251197 doubles =   2100.0 Mbytes
    verify   = yes
    hardfail = no 


           Directory information
           ---------------------

  0 permanent = .
  0 scratch   = .




                                NWChem Input Module
                                -------------------


                       cubane MP2/PC-3 geometry optimization
                       -------------------------------------

 Scaling coordinates for geometry "geometry" by  1.889725989
 (inverse scale =  0.529177249)

 Turning off AUTOSYM since
 SYMMETRY directive was detected!


          ------
          auto-z
          ------


                             Geometry "geometry" -> ""
                             -------------------------

 Output coordinates in angstroms (scale by  1.889725989 to convert to a.u.)

  No.       Tag          Charge          X              Y              Z
 ---- ---------------- ---------- -------------- -------------- --------------
    1 H                    1.0000     1.41070000     1.41070000     1.41070000
    2 H                    1.0000    -1.41070000    -1.41070000     1.41070000
    3 H                    1.0000    -1.41070000     1.41070000    -1.41070000
    4 H                    1.0000     1.41070000    -1.41070000    -1.41070000
    5 H                    1.0000     1.41070000     1.41070000    -1.41070000
    6 H                    1.0000    -1.41070000    -1.41070000    -1.41070000
    7 H                    1.0000     1.41070000    -1.41070000     1.41070000
    8 H                    1.0000    -1.41070000     1.41070000     1.41070000
    9 C                    6.0000     0.78110000     0.78110000     0.78110000
   10 C                    6.0000    -0.78110000    -0.78110000     0.78110000
   11 C                    6.0000    -0.78110000     0.78110000    -0.78110000
   12 C                    6.0000     0.78110000    -0.78110000    -0.78110000
   13 C                    6.0000     0.78110000     0.78110000    -0.78110000
   14 C                    6.0000    -0.78110000    -0.78110000    -0.78110000
   15 C                    6.0000     0.78110000    -0.78110000     0.78110000
   16 C                    6.0000    -0.78110000     0.78110000     0.78110000

      Atomic Mass 
      ----------- 

      H                  1.007825
      C                 12.000000


 Effective nuclear repulsion energy (a.u.)     368.5324824337

            Nuclear Dipole moment (a.u.) 
            ----------------------------
        X                 Y               Z
 ---------------- ---------------- ----------------
     0.0000000000     0.0000000000     0.0000000000

      Symmetry information
      --------------------

 Group name              Oh       
 Group number             44
 Group order              48
 No. of unique centers     2

      Symmetry unique atoms

     1    9



                                Z-matrix (autoz)
                                -------- 

 Units are Angstrom for bonds and degrees for angles

      Type          Name      I     J     K     L     M      Value
      ----------- --------  ----- ----- ----- ----- ----- ----------
    1 Stretch                  1     9                       1.09050
    2 Stretch                  2    10                       1.09050
    3 Stretch                  3    11                       1.09050
    4 Stretch                  4    12                       1.09050
    5 Stretch                  5    13                       1.09050
    6 Stretch                  6    14                       1.09050
    7 Stretch                  7    15                       1.09050
    8 Stretch                  8    16                       1.09050
    9 Stretch                  9    13                       1.56220
   10 Stretch                  9    15                       1.56220
   11 Stretch                  9    16                       1.56220
   12 Stretch                 10    14                       1.56220
   13 Stretch                 10    15                       1.56220
   14 Stretch                 10    16                       1.56220
   15 Stretch                 11    13                       1.56220
   16 Stretch                 11    14                       1.56220
   17 Stretch                 11    16                       1.56220
   18 Stretch                 12    13                       1.56220
   19 Stretch                 12    14                       1.56220
   20 Stretch                 12    15                       1.56220
   21 Bend                     1     9    13               125.26439
   22 Bend                     1     9    15               125.26439
   23 Bend                     1     9    16               125.26439
   24 Bend                     2    10    14               125.26439
   25 Bend                     2    10    15               125.26439
   26 Bend                     2    10    16               125.26439
   27 Bend                     3    11    13               125.26439
   28 Bend                     3    11    14               125.26439
   29 Bend                     3    11    16               125.26439
   30 Bend                     4    12    13               125.26439
   31 Bend                     4    12    14               125.26439
   32 Bend                     4    12    15               125.26439
   33 Bend                     5    13     9               125.26439
   34 Bend                     5    13    11               125.26439
   35 Bend                     5    13    12               125.26439
   36 Bend                     6    14    10               125.26439
   37 Bend                     6    14    11               125.26439
   38 Bend                     6    14    12               125.26439
   39 Bend                     7    15     9               125.26439
   40 Bend                     7    15    10               125.26439
   41 Bend                     7    15    12               125.26439
   42 Bend                     8    16     9               125.26439
   43 Bend                     8    16    10               125.26439
   44 Bend                     8    16    11               125.26439
   45 Bend                     9    13    11                90.00000
   46 Bend                     9    13    12                90.00000
   47 Bend                     9    15    10                90.00000
   48 Bend                     9    15    12                90.00000
   49 Bend                     9    16    10                90.00000
   50 Bend                     9    16    11                90.00000
   51 Bend                    10    14    11                90.00000
   52 Bend                    10    14    12                90.00000
   53 Bend                    10    15    12                90.00000
   54 Bend                    10    16    11                90.00000
   55 Bend                    11    13    12                90.00000
   56 Bend                    11    14    12                90.00000
   57 Bend                    13     9    15                90.00000
   58 Bend                    13     9    16                90.00000
   59 Bend                    13    11    14                90.00000
   60 Bend                    13    11    16                90.00000
   61 Bend                    13    12    14                90.00000
   62 Bend                    13    12    15                90.00000
   63 Bend                    14    10    15                90.00000
   64 Bend                    14    10    16                90.00000
   65 Bend                    14    11    16                90.00000
   66 Bend                    14    12    15                90.00000
   67 Bend                    15     9    16                90.00000
   68 Bend                    15    10    16                90.00000
   69 Torsion                  1     9    13     5           0.00000
   70 Torsion                  1     9    13    11        -135.00000
   71 Torsion                  1     9    13    12         135.00000
   72 Torsion                  1     9    15     7           0.00000
   73 Torsion                  1     9    15    10         135.00000
   74 Torsion                  1     9    15    12        -135.00000
   75 Torsion                  1     9    16     8           0.00000
   76 Torsion                  1     9    16    10        -135.00000
   77 Torsion                  1     9    16    11         135.00000
   78 Torsion                  2    10    14     6           0.00000
   79 Torsion                  2    10    14    11         135.00000
   80 Torsion                  2    10    14    12        -135.00000
   81 Torsion                  2    10    15     7           0.00000
   82 Torsion                  2    10    15     9        -135.00000
   83 Torsion                  2    10    15    12         135.00000
   84 Torsion                  2    10    16     8           0.00000
   85 Torsion                  2    10    16     9         135.00000
   86 Torsion                  2    10    16    11        -135.00000
   87 Torsion                  3    11    13     5           0.00000
   88 Torsion                  3    11    13     9         135.00000
   89 Torsion                  3    11    13    12        -135.00000
   90 Torsion                  3    11    14     6           0.00000
   91 Torsion                  3    11    14    10        -135.00000
   92 Torsion                  3    11    14    12         135.00000
   93 Torsion                  3    11    16     8           0.00000
   94 Torsion                  3    11    16     9        -135.00000
   95 Torsion                  3    11    16    10         135.00000
   96 Torsion                  4    12    13     5           0.00000
   97 Torsion                  4    12    13     9        -135.00000
   98 Torsion                  4    12    13    11         135.00000
   99 Torsion                  4    12    14     6           0.00000
  100 Torsion                  4    12    14    10         135.00000
  101 Torsion                  4    12    14    11        -135.00000
  102 Torsion                  4    12    15     7           0.00000
  103 Torsion                  4    12    15     9         135.00000
  104 Torsion                  4    12    15    10        -135.00000
  105 Torsion                  5    13     9    15        -135.00000
  106 Torsion                  5    13     9    16         135.00000
  107 Torsion                  5    13    11    14         135.00000
  108 Torsion                  5    13    11    16        -135.00000
  109 Torsion                  5    13    12    14        -135.00000
  110 Torsion                  5    13    12    15         135.00000
  111 Torsion                  6    14    10    15         135.00000
  112 Torsion                  6    14    10    16        -135.00000
  113 Torsion                  6    14    11    13        -135.00000
  114 Torsion                  6    14    11    16         135.00000
  115 Torsion                  6    14    12    13         135.00000
  116 Torsion                  6    14    12    15        -135.00000
  117 Torsion                  7    15     9    13         135.00000
  118 Torsion                  7    15     9    16        -135.00000
  119 Torsion                  7    15    10    14        -135.00000
  120 Torsion                  7    15    10    16         135.00000
  121 Torsion                  7    15    12    13        -135.00000
  122 Torsion                  7    15    12    14         135.00000
  123 Torsion                  8    16     9    13        -135.00000
  124 Torsion                  8    16     9    15         135.00000
  125 Torsion                  8    16    10    14         135.00000
  126 Torsion                  8    16    10    15        -135.00000
  127 Torsion                  8    16    11    13         135.00000
  128 Torsion                  8    16    11    14        -135.00000
  129 Torsion                  9    13    11    14         -90.00000
  130 Torsion                  9    13    11    16           0.00000
  131 Torsion                  9    13    12    14          90.00000
  132 Torsion                  9    13    12    15           0.00000
  133 Torsion                  9    15    10    14          90.00000
  134 Torsion                  9    15    10    16           0.00000
  135 Torsion                  9    15    12    13           0.00000
  136 Torsion                  9    15    12    14         -90.00000
  137 Torsion                  9    16    10    14         -90.00000
  138 Torsion                  9    16    10    15           0.00000
  139 Torsion                  9    16    11    13           0.00000
  140 Torsion                  9    16    11    14          90.00000
  141 Torsion                 10    14    11    13          90.00000
  142 Torsion                 10    14    11    16           0.00000
  143 Torsion                 10    14    12    13         -90.00000
  144 Torsion                 10    14    12    15           0.00000
  145 Torsion                 10    15     9    13         -90.00000
  146 Torsion                 10    15     9    16           0.00000
  147 Torsion                 10    15    12    13          90.00000
  148 Torsion                 10    15    12    14           0.00000
  149 Torsion                 10    16     9    13          90.00000
  150 Torsion                 10    16     9    15           0.00000
  151 Torsion                 10    16    11    13         -90.00000
  152 Torsion                 10    16    11    14           0.00000
  153 Torsion                 11    13     9    15          90.00000
  154 Torsion                 11    13     9    16           0.00000
  155 Torsion                 11    13    12    14           0.00000
  156 Torsion                 11    13    12    15         -90.00000
  157 Torsion                 11    14    10    15         -90.00000
  158 Torsion                 11    14    10    16           0.00000
  159 Torsion                 11    14    12    13           0.00000
  160 Torsion                 11    14    12    15          90.00000
  161 Torsion                 11    16     9    13           0.00000
  162 Torsion                 11    16     9    15         -90.00000
  163 Torsion                 11    16    10    14           0.00000
  164 Torsion                 11    16    10    15          90.00000
  165 Torsion                 12    13     9    15           0.00000
  166 Torsion                 12    13     9    16         -90.00000
  167 Torsion                 12    13    11    14           0.00000
  168 Torsion                 12    13    11    16          90.00000
  169 Torsion                 12    14    10    15           0.00000
  170 Torsion                 12    14    10    16          90.00000
  171 Torsion                 12    14    11    13           0.00000
  172 Torsion                 12    14    11    16         -90.00000
  173 Torsion                 12    15     9    13           0.00000
  174 Torsion                 12    15     9    16          90.00000
  175 Torsion                 12    15    10    14           0.00000
  176 Torsion                 12    15    10    16         -90.00000


            XYZ format geometry
            -------------------
    16
 geometry
 H                     1.41070000     1.41070000     1.41070000
 H                    -1.41070000    -1.41070000     1.41070000
 H                    -1.41070000     1.41070000    -1.41070000
 H                     1.41070000    -1.41070000    -1.41070000
 H                     1.41070000     1.41070000    -1.41070000
 H                    -1.41070000    -1.41070000    -1.41070000
 H                     1.41070000    -1.41070000     1.41070000
 H                    -1.41070000     1.41070000     1.41070000
 C                     0.78110000     0.78110000     0.78110000
 C                    -0.78110000    -0.78110000     0.78110000
 C                    -0.78110000     0.78110000    -0.78110000
 C                     0.78110000    -0.78110000    -0.78110000
 C                     0.78110000     0.78110000    -0.78110000
 C                    -0.78110000    -0.78110000    -0.78110000
 C                     0.78110000    -0.78110000     0.78110000
 C                    -0.78110000     0.78110000     0.78110000

 ==============================================================================
                                internuclear distances
 ------------------------------------------------------------------------------
       center one      |      center two      | atomic units |  angstroms
 ------------------------------------------------------------------------------
    9 C                |   1 H                |     2.06074  |     1.09050
   10 C                |   2 H                |     2.06074  |     1.09050
   11 C                |   3 H                |     2.06074  |     1.09050
   12 C                |   4 H                |     2.06074  |     1.09050
   13 C                |   5 H                |     2.06074  |     1.09050
   13 C                |   9 C                |     2.95213  |     1.56220
   13 C                |  11 C                |     2.95213  |     1.56220
   13 C                |  12 C                |     2.95213  |     1.56220
   14 C                |   6 H                |     2.06074  |     1.09050
   14 C                |  10 C                |     2.95213  |     1.56220
   14 C                |  11 C                |     2.95213  |     1.56220
   14 C                |  12 C                |     2.95213  |     1.56220
   15 C                |   7 H                |     2.06074  |     1.09050
   15 C                |   9 C                |     2.95213  |     1.56220
   15 C                |  10 C                |     2.95213  |     1.56220
   15 C                |  12 C                |     2.95213  |     1.56220
   16 C                |   8 H                |     2.06074  |     1.09050
   16 C                |   9 C                |     2.95213  |     1.56220
   16 C                |  10 C                |     2.95213  |     1.56220
   16 C                |  11 C                |     2.95213  |     1.56220
 ------------------------------------------------------------------------------
                         number of included internuclear distances:         20
 ==============================================================================



 ==============================================================================
                                 internuclear angles
 ------------------------------------------------------------------------------
        center 1       |       center 2       |       center 3       |  degrees
 ------------------------------------------------------------------------------
    1 H                |   9 C                |  13 C                |   125.26
    1 H                |   9 C                |  15 C                |   125.26
    1 H                |   9 C                |  16 C                |   125.26
   13 C                |   9 C                |  15 C                |    90.00
   13 C                |   9 C                |  16 C                |    90.00
   15 C                |   9 C                |  16 C                |    90.00
    2 H                |  10 C                |  14 C                |   125.26
    2 H                |  10 C                |  15 C                |   125.26
    2 H                |  10 C                |  16 C                |   125.26
   14 C                |  10 C                |  15 C                |    90.00
   14 C                |  10 C                |  16 C                |    90.00
   15 C                |  10 C                |  16 C                |    90.00
    3 H                |  11 C                |  13 C                |   125.26
    3 H                |  11 C                |  14 C                |   125.26
    3 H                |  11 C                |  16 C                |   125.26
   13 C                |  11 C                |  14 C                |    90.00
   13 C                |  11 C                |  16 C                |    90.00
   14 C                |  11 C                |  16 C                |    90.00
    4 H                |  12 C                |  13 C                |   125.26
    4 H                |  12 C                |  14 C                |   125.26
    4 H                |  12 C                |  15 C                |   125.26
   13 C                |  12 C                |  14 C                |    90.00
   13 C                |  12 C                |  15 C                |    90.00
   14 C                |  12 C                |  15 C                |    90.00
    5 H                |  13 C                |   9 C                |   125.26
    5 H                |  13 C                |  11 C                |   125.26
    5 H                |  13 C                |  12 C                |   125.26
    9 C                |  13 C                |  11 C                |    90.00
    9 C                |  13 C                |  12 C                |    90.00
   11 C                |  13 C                |  12 C                |    90.00
    6 H                |  14 C                |  10 C                |   125.26
    6 H                |  14 C                |  11 C                |   125.26
    6 H                |  14 C                |  12 C                |   125.26
   10 C                |  14 C                |  11 C                |    90.00
   10 C                |  14 C                |  12 C                |    90.00
   11 C                |  14 C                |  12 C                |    90.00
    7 H                |  15 C                |   9 C                |   125.26
    7 H                |  15 C                |  10 C                |   125.26
    7 H                |  15 C                |  12 C                |   125.26
    9 C                |  15 C                |  10 C                |    90.00
    9 C                |  15 C                |  12 C                |    90.00
   10 C                |  15 C                |  12 C                |    90.00
    8 H                |  16 C                |   9 C                |   125.26
    8 H                |  16 C                |  10 C                |   125.26
    8 H                |  16 C                |  11 C                |   125.26
    9 C                |  16 C                |  10 C                |    90.00
    9 C                |  16 C                |  11 C                |    90.00
   10 C                |  16 C                |  11 C                |    90.00
 ------------------------------------------------------------------------------
                            number of included internuclear angles:         48
 ==============================================================================



  library name resolved from: environment
  library file name is: </home/vladimir/bin/nwchem-6.6/src/basis/libraries/>
  

 **** WARNING Zero Coefficient **** on atom "               C"
 angular momentum value: 0  standard basis set name: "PC-3"
 input line that generated warning:
   197:       0.871410E+05           0.281830E-04           0.000000E+00
  

 **** WARNING Zero Coefficient **** on atom "               C"
 angular momentum value: 0  standard basis set name: "PC-3"
 input line that generated warning:
   206:       0.289840E+01           0.000000E+00           0.827140E+00
  
                      Basis "ao basis" -> "" (spherical)
                      -----
  H (Hydrogen)
  ------------
            Exponent  Coefficients 
       -------------- ---------------------------------------------------------
  1 S  7.74690000E+02  0.001316
  1 S  1.16160000E+02  0.010226
  1 S  2.64490000E+01  0.053629
  1 S  7.50150000E+00  0.222850
  1 S  2.45680000E+00  0.753740

  2 S  8.87740000E-01  1.000000

  3 S  3.40850000E-01  1.000000

  4 S  1.34770000E-01  1.000000

  5 S  5.22630000E-02  1.000000

  6 P  6.50000000E+00  1.000000

  7 P  1.55000000E+00  1.000000

  8 P  5.50000000E-01  1.000000

  9 P  2.00000000E-01  1.000000

 10 D  1.95000000E+00  1.000000

 11 D  6.50000000E-01  1.000000

 12 F  2.20000000E+00  1.000000

  C (Carbon)
  ----------
            Exponent  Coefficients 
       -------------- ---------------------------------------------------------
  1 S  8.71410000E+04  0.000028
  1 S  1.30520000E+04  0.000218
  1 S  2.97060000E+03  0.001151
  1 S  8.41460000E+02  0.004786
  1 S  2.74590000E+02  0.017134
  1 S  9.92150000E+01  0.051120
  1 S  3.86940000E+01  0.128050
  1 S  1.59110000E+01  0.227730
  1 S  6.76680000E+00  0.247580

  2 S  1.30520000E+04  0.000003
  2 S  2.97060000E+03 -0.000003
  2 S  8.41460000E+02  0.000122
  2 S  2.74590000E+02  0.000255
  2 S  9.92150000E+01  0.005125
  2 S  3.86940000E+01  0.021955
  2 S  1.59110000E+01  0.141120
  2 S  6.76680000E+00  0.413030
  2 S  2.89840000E+00  0.827140

  3 S  1.12460000E+00  1.000000

  4 S  5.14460000E-01  1.000000

  5 S  2.11760000E-01  1.000000

  6 S  8.50170000E-02  1.000000

  7 P  1.48240000E+02  0.000508
  7 P  3.49120000E+01  0.004213
  7 P  1.08940000E+01  0.021335
  7 P  4.19340000E+00  0.062329
  7 P  1.71340000E+00  0.166420

  8 P  7.35660000E-01  1.000000

  9 P  3.16370000E-01  1.000000

 10 P  1.32420000E-01  1.000000

 11 P  5.19010000E-02  1.000000

 12 D  5.20000000E+00  1.000000

 13 D  1.35000000E+00  1.000000

 14 D  5.20000000E-01  1.000000

 15 D  2.00000000E-01  1.000000

 16 F  1.50000000E+00  1.000000

 17 F  6.50000000E-01  1.000000

 18 G  1.40000000E+00  1.000000



 Summary of "ao basis" -> "" (spherical)
 ------------------------------------------------------------------------------
       Tag                 Description            Shells   Functions and Types
 ---------------- ------------------------------  ------  ---------------------
 H                            PC-3                  12       34   5s4p2d1f
 C                            PC-3                  18       64   6s5p4d2f1g




                           NWChem Geometry Optimization
                           ----------------------------




                       cubane MP2/PC-3 geometry optimization


 maximum gradient threshold         (gmax) =   0.000450
 rms gradient threshold             (grms) =   0.000300
 maximum cartesian step threshold   (xmax) =   0.001800
 rms cartesian step threshold       (xrms) =   0.001200
 fixed trust radius                (trust) =   0.300000
 maximum step size to saddle      (sadstp) =   0.100000
 energy precision                  (eprec) =   1.0D-07
 maximum number of steps          (nptopt) =   20
 initial hessian option           (inhess) =    0
 line search option               (linopt) =    1
 hessian update option            (modupd) =    1
 saddle point option              (modsad) =    0
 initial eigen-mode to follow     (moddir) =    0
 initial variable to follow       (vardir) =    0
 follow first negative mode     (firstneg) =    T
 apply conjugacy                    (opcg) =    F
 source of zmatrix                         =   autoz   


          -------------------
          Energy Minimization
          -------------------


 Names of Z-matrix variables 
    1              2              3              4              5         
    6              7              8              9             10         
   11             12             13             14             15         
   16             17             18             19             20         
   21             22             23             24             25         
   26             27             28             29             30         
   31             32             33             34             35         
   36             37             38             39             40         
   41             42             43             44             45         
   46             47             48             49             50         
   51             52             53             54             55         
   56             57             58             59             60         
   61             62             63             64             65         
   66             67             68             69             70         
   71             72             73             74             75         
   76             77             78             79             80         
   81             82             83             84             85         
   86             87             88             89             90         
   91             92             93             94             95         
   96             97             98             99            100         
  101            102            103            104            105         
  106            107            108            109            110         
  111            112            113            114            115         
  116            117            118            119            120         
  121            122            123            124            125         
  126            127            128            129            130         
  131            132            133            134            135         
  136            137            138            139            140         
  141            142            143            144            145         
  146            147            148            149            150         
  151            152            153            154            155         
  156            157            158            159            160         
  161            162            163            164            165         
  166            167            168            169            170         
  171            172            173            174            175         
  176         

 Variables with the same non-blank name are constrained to be equal


 Using diagonal initial Hessian 
 Scaling for Hessian diagonals: bonds = 1.00  angles = 0.25  torsions = 0.10

          --------
          Step   0
          --------


                         Geometry "geometry" -> "geometry"
                         ---------------------------------

 Output coordinates in angstroms (scale by  1.889725989 to convert to a.u.)

  No.       Tag          Charge          X              Y              Z
 ---- ---------------- ---------- -------------- -------------- --------------
    1 H                    1.0000     1.41070000     1.41070000     1.41070000
    2 H                    1.0000    -1.41070000    -1.41070000     1.41070000
    3 H                    1.0000    -1.41070000     1.41070000    -1.41070000
    4 H                    1.0000     1.41070000    -1.41070000    -1.41070000
    5 H                    1.0000     1.41070000     1.41070000    -1.41070000
    6 H                    1.0000    -1.41070000    -1.41070000    -1.41070000
    7 H                    1.0000     1.41070000    -1.41070000     1.41070000
    8 H                    1.0000    -1.41070000     1.41070000     1.41070000
    9 C                    6.0000     0.78110000     0.78110000     0.78110000
   10 C                    6.0000    -0.78110000    -0.78110000     0.78110000
   11 C                    6.0000    -0.78110000     0.78110000    -0.78110000
   12 C                    6.0000     0.78110000    -0.78110000    -0.78110000
   13 C                    6.0000     0.78110000     0.78110000    -0.78110000
   14 C                    6.0000    -0.78110000    -0.78110000    -0.78110000
   15 C                    6.0000     0.78110000    -0.78110000     0.78110000
   16 C                    6.0000    -0.78110000     0.78110000     0.78110000

      Atomic Mass 
      ----------- 

      H                  1.007825
      C                 12.000000


 Effective nuclear repulsion energy (a.u.)     368.5324824337

            Nuclear Dipole moment (a.u.) 
            ----------------------------
        X                 Y               Z
 ---------------- ---------------- ----------------
     0.0000000000     0.0000000000     0.0000000000

      Symmetry information
      --------------------

 Group name              Oh       
 Group number             44
 Group order              48
 No. of unique centers     2

      Symmetry unique atoms

     1    9

                                 NWChem SCF Module
                                 -----------------


                       cubane MP2/PC-3 geometry optimization



  ao basis        = "ao basis"
  functions       =   784
  atoms           =    16
  closed shells   =    28
  open shells     =     0
  charge          =   0.00
  wavefunction    = RHF 
  input vectors   = atomic
  output vectors  = ./cubane.movecs
  use symmetry    = T
  symmetry adapt  = T


 Summary of "ao basis" -> "ao basis" (spherical)
 ------------------------------------------------------------------------------
       Tag                 Description            Shells   Functions and Types
 ---------------- ------------------------------  ------  ---------------------
 H                            PC-3                  12       34   5s4p2d1f
 C                            PC-3                  18       64   6s5p4d2f1g


      Symmetry analysis of basis
      --------------------------

        a1g        34
        a1u         4
        a2g         4
        a2u        34
        eg         60
        eu         60
        t1g       102
        t1u       192
        t2g       192
        t2u       102


 Forming initial guess at       2.0s


 !! The overlap matrix has   5 vectors deemed linearly dependent with
    eigenvalues:
 8.69D-07 5.06D-06 5.06D-06 5.06D-06 9.44D-06


      Superposition of Atomic Density Guess
      -------------------------------------

 Sum of atomic energies:        -305.37562450

      Non-variational initial energy
      ------------------------------

 Total energy =    -312.011390
 1-e energy   =   -1139.794411
 2-e energy   =     459.250539
 HOMO         =      -0.297131
 LUMO         =       0.023938


      Symmetry analysis of molecular orbitals - initial
      -------------------------------------------------

  Numbering of irreducible representations: 

     1 a1g         2 a1u         3 a2g         4 a2u         5 eg      
     6 eu          7 t1g         8 t1u         9 t2g        10 t2u     

  Orbital symmetries:

     1 a1g         2 t1u         3 t1u         4 t1u         5 t2g     
     6 t2g         7 t2g         8 a2u         9 a1g        10 t1u     
    11 t1u        12 t1u        13 t2g        14 t2g        15 t2g     
    16 a1g        17 a2u        18 eg         19 eg         20 t1u     
    21 t1u        22 t1u        23 t2u        24 t2u        25 t2u     
    26 t2g        27 t2g        28 t2g        29 t1u        30 t1u     
    31 t1u        32 a1g        33 t2g        34 t2g        35 t2g     
    36 t1u        37 t1u        38 t1u     


 Starting SCF solution at      98.4s



 ----------------------------------------------
         Quadratically convergent ROHF

 Convergence threshold     :          1.000E-06
 Maximum no. of iterations :           30
 Final Fock-matrix accuracy:          1.000E-10
 ----------------------------------------------


              iter       energy          gnorm     gmax       time
             ----- ------------------- --------- --------- --------
                 1     -307.4154605755  1.00D+00  2.29D-01    194.5
 Warning: symmetry breaking in RHF:    1.0519552746252048E-009
                 2     -307.4954259884  3.32D-01  4.79D-02    294.6
                 3     -307.5045468527  1.00D-02  1.39D-03    586.1
                 4     -307.5045588863  1.91D-05  3.73D-06   1063.5
                 5     -307.5045588864  2.54D-08  4.26D-09   1549.9


       Final RHF  results 
       ------------------ 

         Total SCF energy =   -307.504558886396
      One-electron energy =  -1146.440792028005
      Two-electron energy =    470.403750707929
 Nuclear repulsion energy =    368.532482433680

        Time for solution =   1454.2s



       Symmetry analysis of molecular orbitals - final
       -----------------------------------------------

  Numbering of irreducible representations: 

     1 a1g         2 a1u         3 a2g         4 a2u         5 eg      
     6 eu          7 t1g         8 t1u         9 t2g        10 t2u     

  Orbital symmetries:

     1 a1g         2 t1u         3 t1u         4 t1u         5 t2g     
     6 t2g         7 t2g         8 a2u         9 a1g        10 t1u     
    11 t1u        12 t1u        13 t2g        14 t2g        15 t2g     
    16 a1g        17 a2u        18 eg         19 eg         20 t1u     
    21 t1u        22 t1u        23 t2u        24 t2u        25 t2u     
    26 t2g        27 t2g        28 t2g        29 a1g        30 t1u     
    31 t1u        32 t1u        33 t2g        34 t2g        35 t2g     
    36 a2u        37 t1u        38 t1u     

             Final eigenvalues
             -----------------

              1      
    1  -11.2201
    2  -11.2196
    3  -11.2196
    4  -11.2196
    5  -11.2191
    6  -11.2191
    7  -11.2191
    8  -11.2186
    9   -1.2479
   10   -0.9797
   11   -0.9797
   12   -0.9797
   13   -0.7663
   14   -0.7663
   15   -0.7663
   16   -0.7101
   17   -0.6385
   18   -0.5820
   19   -0.5820
   20   -0.5797
   21   -0.5797
   22   -0.5797
   23   -0.3915
   24   -0.3915
   25   -0.3915
   26   -0.3831
   27   -0.3831
   28   -0.3831
   29    0.0760
   30    0.0781
   31    0.0781
   32    0.0781
   33    0.0992
   34    0.0992
   35    0.0992
   36    0.1243
   37    0.1451
   38    0.1451

                       ROHF Final Molecular Orbital Analysis
                       -------------------------------------

 Vector    9  Occ=2.000000D+00  E=-1.247924D+00  Symmetry=a1g
              MO Center= -5.6D-17, -2.8D-17, -1.7D-16, r^2= 1.6D+00
   Bfn.  Coefficient  Atom+Function         Bfn.  Coefficient  Atom+Function  
  ----- ------------  ---------------      ----- ------------  ---------------
   277      0.127975   9 C  s               341      0.127975  10 C  s         
   405      0.127975  11 C  s               469      0.127975  12 C  s         
   533      0.127975  13 C  s               597      0.127975  14 C  s         
   661      0.127975  15 C  s               725      0.127975  16 C  s         
   276      0.119359   9 C  s               340      0.119359  10 C  s         

 Vector   10  Occ=2.000000D+00  E=-9.796928D-01  Symmetry=t1u
              MO Center= -4.9D-17,  8.3D-17, -6.3D-17, r^2= 2.6D+00
   Bfn.  Coefficient  Atom+Function         Bfn.  Coefficient  Atom+Function  
  ----- ------------  ---------------      ----- ------------  ---------------
   405      0.210590  11 C  s               661     -0.210590  15 C  s         
   404      0.181908  11 C  s               660     -0.181908  15 C  s         

 Vector   11  Occ=2.000000D+00  E=-9.796928D-01  Symmetry=t1u
              MO Center= -1.4D-17, -2.8D-17, -8.3D-17, r^2= 2.6D+00
   Bfn.  Coefficient  Atom+Function         Bfn.  Coefficient  Atom+Function  
  ----- ------------  ---------------      ----- ------------  ---------------
   341      0.186092  10 C  s               533     -0.186092  13 C  s         
   469     -0.183194  12 C  s               725      0.183194  16 C  s         
   340      0.160746  10 C  s               532     -0.160746  13 C  s         
   468     -0.158243  12 C  s               724      0.158243  16 C  s         

 Vector   12  Occ=2.000000D+00  E=-9.796928D-01  Symmetry=t1u
              MO Center= -1.4D-17,  6.9D-17, -4.9D-17, r^2= 2.6D+00
   Bfn.  Coefficient  Atom+Function         Bfn.  Coefficient  Atom+Function  
  ----- ------------  ---------------      ----- ------------  ---------------
   277      0.173498   9 C  s               597     -0.173498  14 C  s         

 Vector   13  Occ=2.000000D+00  E=-7.662952D-01  Symmetry=t2g
              MO Center=  9.9D-14, -4.0D-14,  7.6D-14, r^2= 4.1D+00
   Bfn.  Coefficient  Atom+Function         Bfn.  Coefficient  Atom+Function  
  ----- ------------  ---------------      ----- ------------  ---------------
   404     -0.153523  11 C  s               660     -0.153523  15 C  s         

 Vector   14  Occ=2.000000D+00  E=-7.662952D-01  Symmetry=t2g
              MO Center=  1.4D-12, -1.3D-12, -3.8D-12, r^2= 4.1D+00
   Bfn.  Coefficient  Atom+Function         Bfn.  Coefficient  Atom+Function  
  ----- ------------  ---------------      ----- ------------  ---------------
   340      0.170425  10 C  s               532      0.170425  13 C  s         
   341      0.159525  10 C  s               533      0.159525  13 C  s         

 Vector   15  Occ=2.000000D+00  E=-7.662952D-01  Symmetry=t2g
              MO Center= -6.9D-13,  7.9D-13, -3.4D-14, r^2= 4.1D+00
   Bfn.  Coefficient  Atom+Function         Bfn.  Coefficient  Atom+Function  
  ----- ------------  ---------------      ----- ------------  ---------------
   468      0.140111  12 C  s               724      0.140111  16 C  s         
   469      0.131150  12 C  s               725      0.131150  16 C  s         

 Vector   16  Occ=2.000000D+00  E=-7.101325D-01  Symmetry=a1g
              MO Center=  5.6D-17, -8.3D-17, -1.5D-16, r^2= 4.3D+00
   Bfn.  Coefficient  Atom+Function         Bfn.  Coefficient  Atom+Function  
  ----- ------------  ---------------      ----- ------------  ---------------
     3      0.077470   1 H  s                37      0.077470   2 H  s         
    71      0.077470   3 H  s               105      0.077470   4 H  s         
   139      0.077470   5 H  s               173      0.077470   6 H  s         
   207      0.077470   7 H  s               241      0.077470   8 H  s         

 Vector   17  Occ=2.000000D+00  E=-6.385149D-01  Symmetry=a2u
              MO Center=  1.1D-13, -3.4D-13, -1.5D-13, r^2= 5.1D+00
   Bfn.  Coefficient  Atom+Function         Bfn.  Coefficient  Atom+Function  
  ----- ------------  ---------------      ----- ------------  ---------------
   276      0.090074   9 C  s               340      0.090074  10 C  s         
   404      0.090074  11 C  s               468      0.090074  12 C  s         
   532     -0.090074  13 C  s               596     -0.090074  14 C  s         
   660     -0.090074  15 C  s               724     -0.090074  16 C  s         

 Vector   18  Occ=2.000000D+00  E=-5.820454D-01  Symmetry=eg
              MO Center=  4.2D-17,  0.0D+00,  1.4D-17, r^2= 2.5D+00
   Bfn.  Coefficient  Atom+Function         Bfn.  Coefficient  Atom+Function  
  ----- ------------  ---------------      ----- ------------  ---------------
   287      0.089604   9 C  pz              351      0.089604  10 C  pz        
   415     -0.089604  11 C  pz              479     -0.089604  12 C  pz        
   543     -0.089604  13 C  pz              607     -0.089604  14 C  pz        
   671      0.089604  15 C  pz              735      0.089604  16 C  pz        

 Vector   19  Occ=2.000000D+00  E=-5.820454D-01  Symmetry=eg
              MO Center=  4.0D-16, -1.3D-15, -1.5D-16, r^2= 2.5D+00
   Bfn.  Coefficient  Atom+Function         Bfn.  Coefficient  Atom+Function  
  ----- ------------  ---------------      ----- ------------  ---------------
   285      0.083681   9 C  px              349     -0.083681  10 C  px        
   413     -0.083681  11 C  px              477      0.083681  12 C  px        
   541      0.083681  13 C  px              605     -0.083681  14 C  px        
   669      0.083681  15 C  px              733     -0.083681  16 C  px        

 Vector   20  Occ=2.000000D+00  E=-5.796995D-01  Symmetry=t1u
              MO Center=  1.7D-14,  1.4D-13, -3.5D-14, r^2= 4.2D+00
   Bfn.  Coefficient  Atom+Function         Bfn.  Coefficient  Atom+Function  
  ----- ------------  ---------------      ----- ------------  ---------------
    37      0.091649   2 H  s               139     -0.091649   5 H  s         

 Vector   21  Occ=2.000000D+00  E=-5.796995D-01  Symmetry=t1u
              MO Center= -4.4D-13, -6.3D-14,  2.7D-13, r^2= 4.2D+00
   Bfn.  Coefficient  Atom+Function         Bfn.  Coefficient  Atom+Function  
  ----- ------------  ---------------      ----- ------------  ---------------
     3      0.101150   1 H  s               173     -0.101150   6 H  s         

 Vector   22  Occ=2.000000D+00  E=-5.796995D-01  Symmetry=t1u
              MO Center=  2.5D-13, -9.6D-13,  6.8D-13, r^2= 4.2D+00
   Bfn.  Coefficient  Atom+Function         Bfn.  Coefficient  Atom+Function  
  ----- ------------  ---------------      ----- ------------  ---------------
    71      0.098622   3 H  s               207     -0.098622   7 H  s         
   105     -0.090656   4 H  s               241      0.090656   8 H  s         

 Vector   23  Occ=2.000000D+00  E=-3.915407D-01  Symmetry=t2u
              MO Center= -7.4D-15,  1.1D-14, -2.1D-14, r^2= 2.8D+00
   Bfn.  Coefficient  Atom+Function         Bfn.  Coefficient  Atom+Function  
  ----- ------------  ---------------      ----- ------------  ---------------
   415      0.121460  11 C  pz              479     -0.121460  12 C  pz        
   671      0.121460  15 C  pz              735     -0.121460  16 C  pz        

 Vector   24  Occ=2.000000D+00  E=-3.915407D-01  Symmetry=t2u
              MO Center= -2.6D-15,  7.6D-16, -4.6D-15, r^2= 2.8D+00
   Bfn.  Coefficient  Atom+Function         Bfn.  Coefficient  Atom+Function  
  ----- ------------  ---------------      ----- ------------  ---------------
   287     -0.112373   9 C  pz              351      0.112373  10 C  pz        
   543      0.112373  13 C  pz              607     -0.112373  14 C  pz        
   286      0.109795   9 C  py              414     -0.109795  11 C  py        
   606      0.109795  14 C  py              670     -0.109795  15 C  py        

 Vector   25  Occ=2.000000D+00  E=-3.915407D-01  Symmetry=t2u
              MO Center= -1.3D-14, -9.3D-15, -5.6D-17, r^2= 2.8D+00
   Bfn.  Coefficient  Atom+Function         Bfn.  Coefficient  Atom+Function  
  ----- ------------  ---------------      ----- ------------  ---------------
   285      0.114689   9 C  px              477     -0.114689  12 C  px        
   605      0.114689  14 C  px              733     -0.114689  16 C  px        

 Vector   26  Occ=2.000000D+00  E=-3.831019D-01  Symmetry=t2g
              MO Center= -2.8D-15, -1.8D-14,  1.1D-14, r^2= 3.5D+00
   Bfn.  Coefficient  Atom+Function         Bfn.  Coefficient  Atom+Function  
  ----- ------------  ---------------      ----- ------------  ---------------
    38      0.105347   2 H  s               140      0.105347   5 H  s         
   350     -0.105494  10 C  py              414     -0.105143  11 C  py        
   542      0.105494  13 C  py              670      0.105143  15 C  py        
   286     -0.104161   9 C  py              478     -0.103810  12 C  py        
   606      0.104161  14 C  py              734      0.103810  16 C  py        

 Vector   27  Occ=2.000000D+00  E=-3.831019D-01  Symmetry=t2g
              MO Center=  3.3D-12, -1.4D-12, -2.1D-12, r^2= 3.5D+00
   Bfn.  Coefficient  Atom+Function         Bfn.  Coefficient  Atom+Function  
  ----- ------------  ---------------      ----- ------------  ---------------
   106      0.125075   4 H  s               242      0.125075   8 H  s         
   105      0.120459   4 H  s               241      0.120459   8 H  s         

 Vector   28  Occ=2.000000D+00  E=-3.831019D-01  Symmetry=t2g
              MO Center= -9.7D-15,  1.4D-14,  1.1D-14, r^2= 3.5D+00
   Bfn.  Coefficient  Atom+Function         Bfn.  Coefficient  Atom+Function  
  ----- ------------  ---------------      ----- ------------  ---------------
     4      0.115472   1 H  s               174      0.115472   6 H  s         
     3      0.111210   1 H  s               173      0.111210   6 H  s         

 Vector   29  Occ=0.000000D+00  E= 7.604538D-02  Symmetry=a1g
              MO Center= -6.9D-14, -3.2D-14, -2.5D-14, r^2= 1.8D+01
   Bfn.  Coefficient  Atom+Function         Bfn.  Coefficient  Atom+Function  
  ----- ------------  ---------------      ----- ------------  ---------------
   278      3.252414   9 C  s               342      3.252414  10 C  s         
   406      3.252414  11 C  s               470      3.252414  12 C  s         
   534      3.252414  13 C  s               598      3.252414  14 C  s         
   662      3.252414  15 C  s               726      3.252414  16 C  s         
     5     -2.212595   1 H  s                39     -2.212595   2 H  s         

 Vector   30  Occ=0.000000D+00  E= 7.813942D-02  Symmetry=t1u
              MO Center= -2.8D-14, -2.9D-14, -7.0D-15, r^2= 2.0D+01
   Bfn.  Coefficient  Atom+Function         Bfn.  Coefficient  Atom+Function  
  ----- ------------  ---------------      ----- ------------  ---------------
    39      4.292744   2 H  s               141     -4.292744   5 H  s         
   342     -3.715360  10 C  s               534      3.715360  13 C  s         
     5     -3.124148   1 H  s               175      3.124148   6 H  s         
   278      2.703944   9 C  s               598     -2.703944  14 C  s         
    38     -2.367468   2 H  s               140      2.367468   5 H  s         

 Vector   31  Occ=0.000000D+00  E= 7.813942D-02  Symmetry=t1u
              MO Center= -2.8D-14,  2.4D-14,  4.0D-14, r^2= 2.0D+01
   Bfn.  Coefficient  Atom+Function         Bfn.  Coefficient  Atom+Function  
  ----- ------------  ---------------      ----- ------------  ---------------
   107      4.558993   4 H  s               243     -4.558993   8 H  s         
   470     -3.945799  12 C  s               726      3.945799  16 C  s         
   106     -2.514306   4 H  s               242      2.514306   8 H  s         
     5     -2.317511   1 H  s               175      2.317511   6 H  s         
   482     -2.224516  12 C  pz              738     -2.224516  16 C  pz        

 Vector   32  Occ=0.000000D+00  E= 7.813942D-02  Symmetry=t1u
              MO Center=  2.9D-11, -1.3D-11,  2.3D-11, r^2= 2.0D+01
   Bfn.  Coefficient  Atom+Function         Bfn.  Coefficient  Atom+Function  
  ----- ------------  ---------------      ----- ------------  ---------------
    73      4.533701   3 H  s               209     -4.533701   7 H  s         
   406     -3.923909  11 C  s               662      3.923909  15 C  s         
     5     -2.602038   1 H  s               175      2.602038   6 H  s         
    72     -2.500357   3 H  s               208      2.500357   7 H  s         
   278      2.252058   9 C  s               598     -2.252058  14 C  s         

 Vector   33  Occ=0.000000D+00  E= 9.916261D-02  Symmetry=t2g
              MO Center= -2.5D-11,  1.9D-12, -2.1D-11, r^2= 2.3D+01
   Bfn.  Coefficient  Atom+Function         Bfn.  Coefficient  Atom+Function  
  ----- ------------  ---------------      ----- ------------  ---------------
    39      7.120221   2 H  s               141      7.120221   5 H  s         
    73     -5.260540   3 H  s               209     -5.260540   7 H  s         
     5     -4.491285   1 H  s               175     -4.491285   6 H  s         
   356      4.172002  10 C  py              548     -4.172002  13 C  py        
   342     -3.900876  10 C  s               534     -3.900876  13 C  s         

 Vector   34  Occ=0.000000D+00  E= 9.916261D-02  Symmetry=t2g
              MO Center= -2.4D-12,  8.3D-12,  1.0D-12, r^2= 2.3D+01
   Bfn.  Coefficient  Atom+Function         Bfn.  Coefficient  Atom+Function  
  ----- ------------  ---------------      ----- ------------  ---------------
     5      6.929732   1 H  s               175      6.929732   6 H  s         
   107     -5.273752   4 H  s               243     -5.273752   8 H  s         
    73     -4.587180   3 H  s               209     -4.587180   7 H  s         
   293     -4.112110   9 C  pz              613      4.112110  14 C  pz        
   278     -3.796516   9 C  s               598     -3.796516  14 C  s         

 Vector   35  Occ=0.000000D+00  E= 9.916261D-02  Symmetry=t2g
              MO Center= -6.4D-13,  3.8D-12, -3.3D-12, r^2= 2.3D+01
   Bfn.  Coefficient  Atom+Function         Bfn.  Coefficient  Atom+Function  
  ----- ------------  ---------------      ----- ------------  ---------------
   107      6.660560   4 H  s               243      6.660560   8 H  s         
    73     -5.512291   3 H  s               209     -5.512291   7 H  s         
    39     -4.450997   2 H  s               141     -4.450997   5 H  s         
   483     -4.020235  12 C  px              739      4.020235  16 C  px        
   470     -3.649047  12 C  s               726     -3.649047  16 C  s         

 Vector   36  Occ=0.000000D+00  E= 1.242547D-01  Symmetry=a2u
              MO Center=  1.7D-13, -3.7D-13,  2.2D-13, r^2= 2.6D+01
   Bfn.  Coefficient  Atom+Function         Bfn.  Coefficient  Atom+Function  
  ----- ------------  ---------------      ----- ------------  ---------------
     5      8.948945   1 H  s                39      8.948945   2 H  s         
    73      8.948945   3 H  s               107      8.948945   4 H  s         
   141     -8.948945   5 H  s               175     -8.948945   6 H  s         
   209     -8.948945   7 H  s               243     -8.948945   8 H  s         
   291     -4.522851   9 C  px              292     -4.522851   9 C  py        

 Vector   37  Occ=0.000000D+00  E= 1.450501D-01  Symmetry=t1u
              MO Center=  6.9D-15, -5.6D-14,  1.9D-14, r^2= 1.7D+01
   Bfn.  Coefficient  Atom+Function         Bfn.  Coefficient  Atom+Function  
  ----- ------------  ---------------      ----- ------------  ---------------
    39      7.359578   2 H  s               141     -7.359578   5 H  s         
    73     -5.197659   3 H  s               209      5.197659   7 H  s         
   356      3.498732  10 C  py              548      3.498732  13 C  py        
   357     -3.429290  10 C  pz              549     -3.429290  13 C  pz        
   342      3.137111  10 C  s               534     -3.137111  13 C  s         

 Vector   38  Occ=0.000000D+00  E= 1.450501D-01  Symmetry=t1u
              MO Center= -1.7D-13,  6.5D-14, -1.2D-14, r^2= 1.7D+01
   Bfn.  Coefficient  Atom+Function         Bfn.  Coefficient  Atom+Function  
  ----- ------------  ---------------      ----- ------------  ---------------
   107     -6.489459   4 H  s               243      6.489459   8 H  s         
     5      6.434516   1 H  s               175     -6.434516   6 H  s         
   485     -3.206260  12 C  pz              741     -3.206260  16 C  pz        
   293     -3.186336   9 C  pz              613     -3.186336  14 C  pz        
   484     -3.137185  12 C  py              740     -3.137185  16 C  py        

 Vector   39  Occ=0.000000D+00  E= 1.450501D-01  Symmetry=t1u
              MO Center=  1.1D-14, -2.1D-14, -1.5D-13, r^2= 1.7D+01
   Bfn.  Coefficient  Atom+Function         Bfn.  Coefficient  Atom+Function  
  ----- ------------  ---------------      ----- ------------  ---------------
    73      5.972765   3 H  s               209     -5.972765   7 H  s         
   107     -4.470525   4 H  s               243      4.470525   8 H  s         
     5     -4.417070   1 H  s               175      4.417070   6 H  s         
   419      3.291622  11 C  px              675      3.291622  15 C  px        
    39      2.914829   2 H  s               141     -2.914829   5 H  s         

 Vector   40  Occ=0.000000D+00  E= 1.460849D-01  Symmetry=eg
              MO Center= -5.1D-15, -1.1D-14, -7.5D-15, r^2= 1.4D+01
   Bfn.  Coefficient  Atom+Function         Bfn.  Coefficient  Atom+Function  
  ----- ------------  ---------------      ----- ------------  ---------------
   292     -0.346160   9 C  py              356      0.346160  10 C  py        
   420     -0.346160  11 C  py              484      0.346160  12 C  py        
   548     -0.346160  13 C  py              612      0.346160  14 C  py        
   676      0.346160  15 C  py              740     -0.346160  16 C  py        
   291      0.319977   9 C  px              355     -0.319977  10 C  px        

 Vector   41  Occ=0.000000D+00  E= 1.460849D-01  Symmetry=eg
              MO Center=  4.4D-15, -2.8D-16, -8.7D-15, r^2= 1.4D+01
   Bfn.  Coefficient  Atom+Function         Bfn.  Coefficient  Atom+Function  
  ----- ------------  ---------------      ----- ------------  ---------------
   293      0.384594   9 C  pz              357      0.384594  10 C  pz        
   421     -0.384594  11 C  pz              485     -0.384594  12 C  pz        
   549     -0.384594  13 C  pz              613     -0.384594  14 C  pz        
   677      0.384594  15 C  pz              741      0.384594  16 C  pz        
   291     -0.214972   9 C  px              355      0.214972  10 C  px        

 Vector   42  Occ=0.000000D+00  E= 1.824505D-01  Symmetry=t2u
              MO Center= -6.7D-13, -7.5D-13,  7.0D-14, r^2= 1.7D+01
   Bfn.  Coefficient  Atom+Function         Bfn.  Coefficient  Atom+Function  
  ----- ------------  ---------------      ----- ------------  ---------------
   293     -1.273778   9 C  pz              357      1.273778  10 C  pz        
   549      1.273778  13 C  pz              613     -1.273778  14 C  pz        
   291      1.173159   9 C  px              483     -1.173159  12 C  px        
   611      1.173159  14 C  px              739     -1.173159  16 C  px        
   290      0.791358   9 C  pz              354     -0.791358  10 C  pz        

 Vector   43  Occ=0.000000D+00  E= 1.824505D-01  Symmetry=t2u
              MO Center= -3.3D-13,  1.6D-12,  8.6D-13, r^2= 1.7D+01
   Bfn.  Coefficient  Atom+Function         Bfn.  Coefficient  Atom+Function  
  ----- ------------  ---------------      ----- ------------  ---------------
   421      1.292055  11 C  pz              485     -1.292055  12 C  pz        
   677      1.292055  15 C  pz              741     -1.292055  16 C  pz        
   292     -1.024412   9 C  py              420      1.024412  11 C  py        
   612     -1.024412  14 C  py              676      1.024412  15 C  py        
   356     -0.978944  10 C  py              484      0.978944  12 C  py        

 Vector   44  Occ=0.000000D+00  E= 1.824505D-01  Symmetry=t2u
              MO Center=  1.6D-14,  4.3D-13, -4.6D-15, r^2= 1.7D+01
   Bfn.  Coefficient  Atom+Function         Bfn.  Coefficient  Atom+Function  
  ----- ------------  ---------------      ----- ------------  ---------------
   355      1.213425  10 C  px              419     -1.213425  11 C  px        
   547      1.213425  13 C  px              675     -1.213425  15 C  px        
   292      1.056809   9 C  py              420     -1.056809  11 C  py        
   612      1.056809  14 C  py              676     -1.056809  15 C  py        
   356     -0.994499  10 C  py              484      0.994499  12 C  py        

 Vector   45  Occ=0.000000D+00  E= 2.128970D-01  Symmetry=t2g
              MO Center=  5.7D-13, -3.1D-13, -1.4D-12, r^2= 2.0D+01
   Bfn.  Coefficient  Atom+Function         Bfn.  Coefficient  Atom+Function  
  ----- ------------  ---------------      ----- ------------  ---------------
    72      3.396897   3 H  s               208      3.396897   7 H  s         
    73     -3.370790   3 H  s               209     -3.370790   7 H  s         
   292     -3.148545   9 C  py              612      3.148545  14 C  py        
   406     -2.649617  11 C  s               662     -2.649617  15 C  s         
   484     -2.532331  12 C  py              740      2.532331  16 C  py        

 Vector   46  Occ=0.000000D+00  E= 2.128970D-01  Symmetry=t2g
              MO Center=  3.8D-13,  1.7D-12,  1.0D-12, r^2= 2.0D+01
   Bfn.  Coefficient  Atom+Function         Bfn.  Coefficient  Atom+Function  
  ----- ------------  ---------------      ----- ------------  ---------------
    38      3.075641   2 H  s               140      3.075641   5 H  s         
    39     -3.052003   2 H  s               141     -3.052003   5 H  s         
   106     -3.030809   4 H  s               242     -3.030809   8 H  s         
   107      3.007515   4 H  s               243      3.007515   8 H  s         
   419      2.918915  11 C  px              675     -2.918915  15 C  px        

 Vector   47  Occ=0.000000D+00  E= 2.128970D-01  Symmetry=t2g
              MO Center=  2.0D-12, -3.0D-12,  3.0D-13, r^2= 2.0D+01
   Bfn.  Coefficient  Atom+Function         Bfn.  Coefficient  Atom+Function  
  ----- ------------  ---------------      ----- ------------  ---------------
     4      3.732357   1 H  s               174      3.732357   6 H  s         
     5     -3.703671   1 H  s               175     -3.703671   6 H  s         
   357     -3.120873  10 C  pz              549      3.120873  13 C  pz        
   278     -2.911279   9 C  s               598     -2.911279  14 C  s         
   420     -2.705542  11 C  py              483     -2.702430  12 C  px        

 Vector   48  Occ=0.000000D+00  E= 2.234867D-01  Symmetry=t1g
              MO Center= -1.0D-13, -5.7D-13, -8.4D-13, r^2= 1.9D+01
   Bfn.  Coefficient  Atom+Function         Bfn.  Coefficient  Atom+Function  
  ----- ------------  ---------------      ----- ------------  ---------------
   293      5.328579   9 C  pz              357     -5.328579  10 C  pz        
   549      5.328579  13 C  pz              613     -5.328579  14 C  pz        
   356     -4.857151  10 C  py              484      4.857151  12 C  py        
   548      4.857151  13 C  py              740     -4.857151  16 C  py        
   292     -4.027725   9 C  py              420      4.027725  11 C  py        

 Vector   49  Occ=0.000000D+00  E= 2.234867D-01  Symmetry=t1g
              MO Center= -2.9D-12,  7.6D-13,  2.4D-12, r^2= 1.9D+01
   Bfn.  Coefficient  Atom+Function         Bfn.  Coefficient  Atom+Function  
  ----- ------------  ---------------      ----- ------------  ---------------
   421      5.314481  11 C  pz              485     -5.314481  12 C  pz        
   677     -5.314481  15 C  pz              741      5.314481  16 C  pz        
   291      5.228900   9 C  px              483     -5.228900  12 C  px        
   611     -5.228900  14 C  px              739      5.228900  16 C  px        
   355      3.497736  10 C  px              419     -3.497736  11 C  px        

 Vector   50  Occ=0.000000D+00  E= 2.234867D-01  Symmetry=t1g
              MO Center= -2.5D-13,  6.6D-13, -1.1D-13, r^2= 1.9D+01
   Bfn.  Coefficient  Atom+Function         Bfn.  Coefficient  Atom+Function  
  ----- ------------  ---------------      ----- ------------  ---------------
   355      5.378529  10 C  px              419     -5.378529  11 C  px        
   547     -5.378529  13 C  px              675      5.378529  15 C  px        
   292      4.675665   9 C  py              420     -4.675665  11 C  py        
   612     -4.675665  14 C  py              676      4.675665  15 C  py        
   356     -4.217314  10 C  py              484      4.217314  12 C  py        

 Vector   51  Occ=0.000000D+00  E= 2.628606D-01  Symmetry=a1g
              MO Center= -1.3D-12,  8.2D-13, -5.4D-13, r^2= 1.3D+01
   Bfn.  Coefficient  Atom+Function         Bfn.  Coefficient  Atom+Function  
  ----- ------------  ---------------      ----- ------------  ---------------
   278     14.964183   9 C  s               342     14.964183  10 C  s         
   406     14.964183  11 C  s               470     14.964183  12 C  s         
   534     14.964183  13 C  s               598     14.964183  14 C  s         
   662     14.964183  15 C  s               726     14.964183  16 C  s         
     5     -8.187995   1 H  s                39     -8.187995   2 H  s         

 Vector   52  Occ=0.000000D+00  E= 2.652793D-01  Symmetry=t1u
              MO Center=  8.6D-13, -2.1D-13,  5.7D-13, r^2= 1.5D+01
   Bfn.  Coefficient  Atom+Function         Bfn.  Coefficient  Atom+Function  
  ----- ------------  ---------------      ----- ------------  ---------------
    73     15.372143   3 H  s               209    -15.372143   7 H  s         
     5    -10.008682   1 H  s               175     10.008682   6 H  s         
   419      9.169845  11 C  px              675      9.169845  15 C  px        
   421      9.026172  11 C  pz              677      9.026172  15 C  pz        
   420     -8.948714  11 C  py              676     -8.948714  15 C  py        

 Vector   53  Occ=0.000000D+00  E= 2.652793D-01  Symmetry=t1u
              MO Center=  4.0D-13,  1.5D-13, -1.1D-13, r^2= 1.5D+01
   Bfn.  Coefficient  Atom+Function         Bfn.  Coefficient  Atom+Function  
  ----- ------------  ---------------      ----- ------------  ---------------
    39     16.362740   2 H  s               141    -16.362740   5 H  s         
   357     -9.696428  10 C  pz              549     -9.696428  13 C  pz        
   355      9.625409  10 C  px              547      9.625409  13 C  px        
   356      9.572129  10 C  py              548      9.572129  13 C  py        
   107     -8.359255   4 H  s               243      8.359255   8 H  s         

 Vector   54  Occ=0.000000D+00  E= 2.652793D-01  Symmetry=t1u
              MO Center= -6.4D-11,  1.6D-11, -1.2D-11, r^2= 1.5D+01
   Bfn.  Coefficient  Atom+Function         Bfn.  Coefficient  Atom+Function  
  ----- ------------  ---------------      ----- ------------  ---------------
     5     13.285776   1 H  s               175    -13.285776   6 H  s         
   107    -13.167450   4 H  s               243     13.167450   8 H  s         
   292     -7.982422   9 C  py              612     -7.982422  14 C  py        
   484     -7.914381  12 C  py              740     -7.914381  16 C  py        
   293     -7.836004   9 C  pz              613     -7.836004  14 C  pz        

 Vector   55  Occ=0.000000D+00  E= 2.763972D-01  Symmetry=eu
              MO Center=  8.3D-14,  3.9D-13,  6.4D-13, r^2= 2.2D+01
   Bfn.  Coefficient  Atom+Function         Bfn.  Coefficient  Atom+Function  
  ----- ------------  ---------------      ----- ------------  ---------------
   293     15.405363   9 C  pz              357     15.405363  10 C  pz        
   421    -15.405363  11 C  pz              485    -15.405363  12 C  pz        
   549     15.405363  13 C  pz              613     15.405363  14 C  pz        
   677    -15.405363  15 C  pz              741    -15.405363  16 C  pz        
   291     -9.083976   9 C  px              355      9.083976  10 C  px        

 Vector   56  Occ=0.000000D+00  E= 2.763972D-01  Symmetry=eu
              MO Center=  5.6D-13, -2.3D-12,  2.3D-12, r^2= 2.2D+01
   Bfn.  Coefficient  Atom+Function         Bfn.  Coefficient  Atom+Function  
  ----- ------------  ---------------      ----- ------------  ---------------
   292     14.138926   9 C  py              356    -14.138926  10 C  py        
   420     14.138926  11 C  py              484    -14.138926  12 C  py        
   548    -14.138926  13 C  py              612     14.138926  14 C  py        
   676     14.138926  15 C  py              740    -14.138926  16 C  py        
   291    -12.543945   9 C  px              355     12.543945  10 C  px        

 Vector   57  Occ=0.000000D+00  E= 2.883227D-01  Symmetry=t1u
              MO Center=  1.1D-11,  5.0D-12,  2.7D-12, r^2= 1.4D+01
   Bfn.  Coefficient  Atom+Function         Bfn.  Coefficient  Atom+Function  
  ----- ------------  ---------------      ----- ------------  ---------------
   470      6.251876  12 C  s               726     -6.251876  16 C  s         
   278     -6.183556   9 C  s               598      6.183556  14 C  s         
   107     -6.005669   4 H  s               243      6.005669   8 H  s         
     5      5.940041   1 H  s               175     -5.940041   6 H  s         
   483      3.853041  12 C  px              739      3.853041  16 C  px        

 Vector   58  Occ=0.000000D+00  E= 2.883227D-01  Symmetry=t1u
              MO Center= -1.3D-13,  4.0D-14,  1.6D-14, r^2= 1.4D+01
   Bfn.  Coefficient  Atom+Function         Bfn.  Coefficient  Atom+Function  
  ----- ------------  ---------------      ----- ------------  ---------------
   342      5.367037  10 C  s               534     -5.367037  13 C  s         
    39     -5.155676   2 H  s               141      5.155676   5 H  s         
   470     -5.171061  12 C  s               726      5.171061  16 C  s         
   107      4.967418   4 H  s               243     -4.967418   8 H  s         
   278     -4.916804   9 C  s               598      4.916804  14 C  s         

 Vector   59  Occ=0.000000D+00  E= 2.883227D-01  Symmetry=t1u
              MO Center= -2.9D-11, -1.2D-11, -5.9D-12, r^2= 1.4D+01
   Bfn.  Coefficient  Atom+Function         Bfn.  Coefficient  Atom+Function  
  ----- ------------  ---------------      ----- ------------  ---------------
   406      6.452633  11 C  s               662     -6.452633  15 C  s         
    73     -6.198521   3 H  s               209      6.198521   7 H  s         
   342     -5.966373  10 C  s               534      5.966373  13 C  s         
    39      5.731410   2 H  s               141     -5.731410   5 H  s         
   419     -3.937147  11 C  px              675     -3.937147  15 C  px        

 Vector   60  Occ=0.000000D+00  E= 2.917543D-01  Symmetry=a1g
              MO Center= -4.3D-12, -8.6D-12,  8.4D-12, r^2= 2.0D+01
   Bfn.  Coefficient  Atom+Function         Bfn.  Coefficient  Atom+Function  
  ----- ------------  ---------------      ----- ------------  ---------------
   278     25.359116   9 C  s               342     25.359116  10 C  s         
   406     25.359116  11 C  s               470     25.359116  12 C  s         
   534     25.359116  13 C  s               598     25.359116  14 C  s         
   662     25.359116  15 C  s               726     25.359116  16 C  s         
     5    -15.300485   1 H  s                39    -15.300485   2 H  s         

 Vector   61  Occ=0.000000D+00  E= 2.963360D-01  Symmetry=t2g
              MO Center= -7.6D-11, -6.2D-11, -1.7D-10, r^2= 1.8D+01
   Bfn.  Coefficient  Atom+Function         Bfn.  Coefficient  Atom+Function  
  ----- ------------  ---------------      ----- ------------  ---------------
     5     14.888851   1 H  s               175     14.888851   6 H  s         
   293    -11.379216   9 C  pz              613     11.379216  14 C  pz        
   278    -10.278274   9 C  s               598    -10.278274  14 C  s         
   291     -9.291922   9 C  px              611      9.291922  14 C  px        
    73     -9.084040   3 H  s               209     -9.084040   7 H  s         

 Vector   62  Occ=0.000000D+00  E= 2.963360D-01  Symmetry=t2g
              MO Center=  1.4D-11,  7.2D-12, -1.4D-11, r^2= 1.8D+01
   Bfn.  Coefficient  Atom+Function         Bfn.  Coefficient  Atom+Function  
  ----- ------------  ---------------      ----- ------------  ---------------
    39     15.691347   2 H  s               141     15.691347   5 H  s         
   355     11.354492  10 C  px              547    -11.354492  13 C  px        
   342    -10.832264  10 C  s               534    -10.832264  13 C  s         
   357    -10.142322  10 C  pz              549     10.142322  13 C  pz        
   356      9.535203  10 C  py              548     -9.535203  13 C  py        

 Vector   63  Occ=0.000000D+00  E= 2.963360D-01  Symmetry=t2g
              MO Center= -6.5D-11,  1.1D-10, -3.4D-12, r^2= 1.8D+01
   Bfn.  Coefficient  Atom+Function         Bfn.  Coefficient  Atom+Function  
  ----- ------------  ---------------      ----- ------------  ---------------
    73     13.503561   3 H  s               209     13.503561   7 H  s         
   107    -12.075506   4 H  s               243    -12.075506   8 H  s         
   420    -10.769336  11 C  py              676     10.769336  15 C  py        
   484    -10.068464  12 C  py              740     10.068464  16 C  py        
   406     -9.321962  11 C  s               662     -9.321962  15 C  s         

 Vector   64  Occ=0.000000D+00  E= 3.045713D-01  Symmetry=a2u
              MO Center=  1.5D-10, -5.0D-11,  1.9D-10, r^2= 2.0D+01
   Bfn.  Coefficient  Atom+Function         Bfn.  Coefficient  Atom+Function  
  ----- ------------  ---------------      ----- ------------  ---------------
     5     14.147288   1 H  s                39     14.147288   2 H  s         
    73     14.147288   3 H  s               107     14.147288   4 H  s         
   141    -14.147288   5 H  s               175    -14.147288   6 H  s         
   209    -14.147288   7 H  s               243    -14.147288   8 H  s         
   291     -8.568398   9 C  px              292     -8.568398   9 C  py        

 Vector   65  Occ=0.000000D+00  E= 3.558760D-01  Symmetry=t1u
              MO Center= -3.7D-12,  1.2D-14, -1.8D-12, r^2= 1.5D+01
   Bfn.  Coefficient  Atom+Function         Bfn.  Coefficient  Atom+Function  
  ----- ------------  ---------------      ----- ------------  ---------------
     4      9.256938   1 H  s               174     -9.256938   6 H  s         
    72     -7.312779   3 H  s               208      7.312779   7 H  s         
     5      7.180110   1 H  s               175     -7.180110   6 H  s         
   290     -6.980740   9 C  pz              610     -6.980740  14 C  pz        
   418     -6.162544  11 C  pz              674     -6.162544  15 C  pz        

 Vector   66  Occ=0.000000D+00  E= 3.558760D-01  Symmetry=t1u
              MO Center= -7.6D-13, -9.0D-13, -1.9D-13, r^2= 1.5D+01
   Bfn.  Coefficient  Atom+Function         Bfn.  Coefficient  Atom+Function  
  ----- ------------  ---------------      ----- ------------  ---------------
    38     11.262654   2 H  s               140    -11.262654   5 H  s         
    39      8.735835   2 H  s               141     -8.735835   5 H  s         
     4     -7.542522   1 H  s               174      7.542522   6 H  s         
   357     -7.206404  10 C  pz              549     -7.206404  13 C  pz        
   352      7.136595  10 C  px              544      7.136595  13 C  px        

 Vector   67  Occ=0.000000D+00  E= 3.558760D-01  Symmetry=t1u
              MO Center= -2.4D-13, -1.4D-13, -7.9D-14, r^2= 1.5D+01
   Bfn.  Coefficient  Atom+Function         Bfn.  Coefficient  Atom+Function  
  ----- ------------  ---------------      ----- ------------  ---------------
   106     -9.990609   4 H  s               242      9.990609   8 H  s         
    72      9.495561   3 H  s               208     -9.495561   7 H  s         
   107     -7.749179   4 H  s               243      7.749179   8 H  s         
    73      7.365196   3 H  s               209     -7.365196   7 H  s         
   481     -6.710665  12 C  py              737     -6.710665  16 C  py        

 Vector   68  Occ=0.000000D+00  E= 3.862047D-01  Symmetry=t1g
              MO Center= -3.2D-13,  9.9D-12,  1.5D-11, r^2= 7.2D+00
   Bfn.  Coefficient  Atom+Function         Bfn.  Coefficient  Atom+Function  
  ----- ------------  ---------------      ----- ------------  ---------------
   290      3.400490   9 C  pz              354     -3.400490  10 C  pz        
   546      3.400490  13 C  pz              610     -3.400490  14 C  pz        
   293     -3.212757   9 C  pz              357      3.212757  10 C  pz        
   549     -3.212757  13 C  pz              613      3.212757  14 C  pz        
   353     -3.072376  10 C  py              481      3.072376  12 C  py        

 Vector   69  Occ=0.000000D+00  E= 3.862047D-01  Symmetry=t1g
              MO Center=  4.6D-11, -2.6D-11,  7.0D-12, r^2= 7.2D+00
   Bfn.  Coefficient  Atom+Function         Bfn.  Coefficient  Atom+Function  
  ----- ------------  ---------------      ----- ------------  ---------------
   288      3.376273   9 C  px              480     -3.376273  12 C  px        
   608     -3.376273  14 C  px              736      3.376273  16 C  px        
   291     -3.189877   9 C  px              483      3.189877  12 C  px        
   611      3.189877  14 C  px              739     -3.189877  16 C  px        
   289     -3.021720   9 C  py              417      3.021720  11 C  py        

 Vector   70  Occ=0.000000D+00  E= 3.862047D-01  Symmetry=t1g
              MO Center=  2.4D-11,  4.7D-12, -9.3D-12, r^2= 7.2D+00
   Bfn.  Coefficient  Atom+Function         Bfn.  Coefficient  Atom+Function  
  ----- ------------  ---------------      ----- ------------  ---------------
   352      3.766450  10 C  px              416     -3.766450  11 C  px        
   544     -3.766450  13 C  px              672      3.766450  15 C  px        
   355     -3.558513  10 C  px              419      3.558513  11 C  px        
   547      3.558513  13 C  px              675     -3.558513  15 C  px        
   418      2.215820  11 C  pz              482     -2.215820  12 C  pz        

 Vector   71  Occ=0.000000D+00  E= 4.227083D-01  Symmetry=a1g
              MO Center= -4.8D-13, -1.0D-12,  4.2D-12, r^2= 1.2D+01
   Bfn.  Coefficient  Atom+Function         Bfn.  Coefficient  Atom+Function  
  ----- ------------  ---------------      ----- ------------  ---------------
   278     12.404103   9 C  s               342     12.404103  10 C  s         
   406     12.404103  11 C  s               470     12.404103  12 C  s         
   534     12.404103  13 C  s               598     12.404103  14 C  s         
   662     12.404103  15 C  s               726     12.404103  16 C  s         
     5     -8.082900   1 H  s                39     -8.082900   2 H  s         

[...]
   53 Bend                    10    15    12                90.00000    0.00000
   54 Bend                    10    16    11                90.00000    0.00000
   55 Bend                    11    13    12                90.00000    0.00000
   56 Bend                    11    14    12                90.00000    0.00000
   57 Bend                    13     9    15                90.00000    0.00000
   58 Bend                    13     9    16                90.00000    0.00000
   59 Bend                    13    11    14                90.00000    0.00000
   60 Bend                    13    11    16                90.00000    0.00000
   61 Bend                    13    12    14                90.00000    0.00000
   62 Bend                    13    12    15                90.00000    0.00000
   63 Bend                    14    10    15                90.00000    0.00000
   64 Bend                    14    10    16                90.00000    0.00000
   65 Bend                    14    11    16                90.00000    0.00000
   66 Bend                    14    12    15                90.00000    0.00000
   67 Bend                    15     9    16                90.00000    0.00000
   68 Bend                    15    10    16                90.00000    0.00000
   69 Torsion                  1     9    13     5           0.00000    0.00000
   70 Torsion                  1     9    13    11        -135.00000    0.00000
   71 Torsion                  1     9    13    12         135.00000   -0.00000
   72 Torsion                  1     9    15     7           0.00000    0.00000
   73 Torsion                  1     9    15    10         135.00000   -0.00000
   74 Torsion                  1     9    15    12        -135.00000    0.00000
   75 Torsion                  1     9    16     8           0.00000    0.00000
   76 Torsion                  1     9    16    10        -135.00000    0.00000
   77 Torsion                  1     9    16    11         135.00000   -0.00000
   78 Torsion                  2    10    14     6           0.00000    0.00000
   79 Torsion                  2    10    14    11         135.00000   -0.00000
   80 Torsion                  2    10    14    12        -135.00000    0.00000
   81 Torsion                  2    10    15     7           0.00000    0.00000
   82 Torsion                  2    10    15     9        -135.00000    0.00000
   83 Torsion                  2    10    15    12         135.00000   -0.00000
   84 Torsion                  2    10    16     8           0.00000    0.00000
   85 Torsion                  2    10    16     9         135.00000   -0.00000
   86 Torsion                  2    10    16    11        -135.00000    0.00000
   87 Torsion                  3    11    13     5           0.00000    0.00000
   88 Torsion                  3    11    13     9         135.00000   -0.00000
   89 Torsion                  3    11    13    12        -135.00000    0.00000
   90 Torsion                  3    11    14     6           0.00000    0.00000
   91 Torsion                  3    11    14    10        -135.00000    0.00000
   92 Torsion                  3    11    14    12         135.00000   -0.00000
   93 Torsion                  3    11    16     8           0.00000    0.00000
   94 Torsion                  3    11    16     9        -135.00000    0.00000
   95 Torsion                  3    11    16    10         135.00000   -0.00000
   96 Torsion                  4    12    13     5           0.00000    0.00000
   97 Torsion                  4    12    13     9        -135.00000    0.00000
   98 Torsion                  4    12    13    11         135.00000   -0.00000
   99 Torsion                  4    12    14     6           0.00000    0.00000
  100 Torsion                  4    12    14    10         135.00000   -0.00000
  101 Torsion                  4    12    14    11        -135.00000    0.00000
  102 Torsion                  4    12    15     7           0.00000    0.00000
  103 Torsion                  4    12    15     9         135.00000   -0.00000
  104 Torsion                  4    12    15    10        -135.00000    0.00000
  105 Torsion                  5    13     9    15        -135.00000    0.00000
  106 Torsion                  5    13     9    16         135.00000   -0.00000
  107 Torsion                  5    13    11    14         135.00000   -0.00000
  108 Torsion                  5    13    11    16        -135.00000    0.00000
  109 Torsion                  5    13    12    14        -135.00000    0.00000
  110 Torsion                  5    13    12    15         135.00000   -0.00000
  111 Torsion                  6    14    10    15         135.00000   -0.00000
  112 Torsion                  6    14    10    16        -135.00000    0.00000
  113 Torsion                  6    14    11    13        -135.00000    0.00000
  114 Torsion                  6    14    11    16         135.00000   -0.00000
  115 Torsion                  6    14    12    13         135.00000   -0.00000
  116 Torsion                  6    14    12    15        -135.00000    0.00000
  117 Torsion                  7    15     9    13         135.00000   -0.00000
  118 Torsion                  7    15     9    16        -135.00000    0.00000
  119 Torsion                  7    15    10    14        -135.00000    0.00000
  120 Torsion                  7    15    10    16         135.00000   -0.00000
  121 Torsion                  7    15    12    13        -135.00000    0.00000
  122 Torsion                  7    15    12    14         135.00000   -0.00000
  123 Torsion                  8    16     9    13        -135.00000    0.00000
  124 Torsion                  8    16     9    15         135.00000   -0.00000
  125 Torsion                  8    16    10    14         135.00000   -0.00000
  126 Torsion                  8    16    10    15        -135.00000    0.00000
  127 Torsion                  8    16    11    13         135.00000   -0.00000
  128 Torsion                  8    16    11    14        -135.00000    0.00000
  129 Torsion                  9    13    11    14         -90.00000    0.00000
  130 Torsion                  9    13    11    16           0.00000    0.00000
  131 Torsion                  9    13    12    14          90.00000    0.00000
  132 Torsion                  9    13    12    15           0.00000    0.00000
  133 Torsion                  9    15    10    14          90.00000    0.00000
  134 Torsion                  9    15    10    16           0.00000    0.00000
  135 Torsion                  9    15    12    13           0.00000    0.00000
  136 Torsion                  9    15    12    14         -90.00000    0.00000
  137 Torsion                  9    16    10    14         -90.00000    0.00000
  138 Torsion                  9    16    10    15           0.00000    0.00000
  139 Torsion                  9    16    11    13           0.00000    0.00000
  140 Torsion                  9    16    11    14          90.00000    0.00000
  141 Torsion                 10    14    11    13          90.00000    0.00000
  142 Torsion                 10    14    11    16           0.00000    0.00000
  143 Torsion                 10    14    12    13         -90.00000    0.00000
  144 Torsion                 10    14    12    15           0.00000    0.00000
  145 Torsion                 10    15     9    13         -90.00000    0.00000
  146 Torsion                 10    15     9    16           0.00000    0.00000
  147 Torsion                 10    15    12    13          90.00000    0.00000
  148 Torsion                 10    15    12    14           0.00000    0.00000
  149 Torsion                 10    16     9    13          90.00000    0.00000
  150 Torsion                 10    16     9    15           0.00000    0.00000
  151 Torsion                 10    16    11    13         -90.00000    0.00000
  152 Torsion                 10    16    11    14           0.00000    0.00000
  153 Torsion                 11    13     9    15          90.00000    0.00000
  154 Torsion                 11    13     9    16           0.00000    0.00000
  155 Torsion                 11    13    12    14           0.00000    0.00000
  156 Torsion                 11    13    12    15         -90.00000    0.00000
  157 Torsion                 11    14    10    15         -90.00000    0.00000
  158 Torsion                 11    14    10    16           0.00000    0.00000
  159 Torsion                 11    14    12    13           0.00000    0.00000
  160 Torsion                 11    14    12    15          90.00000    0.00000
  161 Torsion                 11    16     9    13           0.00000    0.00000
  162 Torsion                 11    16     9    15         -90.00000    0.00000
  163 Torsion                 11    16    10    14           0.00000    0.00000
  164 Torsion                 11    16    10    15          90.00000    0.00000
  165 Torsion                 12    13     9    15           0.00000    0.00000
  166 Torsion                 12    13     9    16         -90.00000    0.00000
  167 Torsion                 12    13    11    14           0.00000    0.00000
  168 Torsion                 12    13    11    16          90.00000    0.00000
  169 Torsion                 12    14    10    15           0.00000    0.00000
  170 Torsion                 12    14    10    16          90.00000    0.00000
  171 Torsion                 12    14    11    13           0.00000    0.00000
  172 Torsion                 12    14    11    16         -90.00000    0.00000
  173 Torsion                 12    15     9    13           0.00000    0.00000
  174 Torsion                 12    15     9    16          90.00000    0.00000
  175 Torsion                 12    15    10    14           0.00000    0.00000
  176 Torsion                 12    15    10    16         -90.00000    0.00000

 ==============================================================================
                                internuclear distances
 ------------------------------------------------------------------------------
       center one      |      center two      | atomic units |  angstroms
 ------------------------------------------------------------------------------
    9 C                |   1 H                |     2.04927  |     1.08442
   10 C                |   2 H                |     2.04927  |     1.08442
   11 C                |   3 H                |     2.04927  |     1.08442
   12 C                |   4 H                |     2.04927  |     1.08442
   13 C                |   5 H                |     2.04927  |     1.08442
   13 C                |   9 C                |     2.95149  |     1.56186
   13 C                |  11 C                |     2.95149  |     1.56186
   13 C                |  12 C                |     2.95149  |     1.56186
   14 C                |   6 H                |     2.04927  |     1.08442
   14 C                |  10 C                |     2.95149  |     1.56186
   14 C                |  11 C                |     2.95149  |     1.56186
   14 C                |  12 C                |     2.95149  |     1.56186
   15 C                |   7 H                |     2.04927  |     1.08442
   15 C                |   9 C                |     2.95149  |     1.56186
   15 C                |  10 C                |     2.95149  |     1.56186
   15 C                |  12 C                |     2.95149  |     1.56186
   16 C                |   8 H                |     2.04927  |     1.08442
   16 C                |   9 C                |     2.95149  |     1.56186
   16 C                |  10 C                |     2.95149  |     1.56186
   16 C                |  11 C                |     2.95149  |     1.56186
 ------------------------------------------------------------------------------
                         number of included internuclear distances:         20
 ==============================================================================



 ==============================================================================
                                 internuclear angles
 ------------------------------------------------------------------------------
        center 1       |       center 2       |       center 3       |  degrees
 ------------------------------------------------------------------------------
    1 H                |   9 C                |  13 C                |   125.26
    1 H                |   9 C                |  15 C                |   125.26
    1 H                |   9 C                |  16 C                |   125.26
   13 C                |   9 C                |  15 C                |    90.00
   13 C                |   9 C                |  16 C                |    90.00
   15 C                |   9 C                |  16 C                |    90.00
    2 H                |  10 C                |  14 C                |   125.26
    2 H                |  10 C                |  15 C                |   125.26
    2 H                |  10 C                |  16 C                |   125.26
   14 C                |  10 C                |  15 C                |    90.00
   14 C                |  10 C                |  16 C                |    90.00
   15 C                |  10 C                |  16 C                |    90.00
    3 H                |  11 C                |  13 C                |   125.26
    3 H                |  11 C                |  14 C                |   125.26
    3 H                |  11 C                |  16 C                |   125.26
   13 C                |  11 C                |  14 C                |    90.00
   13 C                |  11 C                |  16 C                |    90.00
   14 C                |  11 C                |  16 C                |    90.00
    4 H                |  12 C                |  13 C                |   125.26
    4 H                |  12 C                |  14 C                |   125.26
    4 H                |  12 C                |  15 C                |   125.26
   13 C                |  12 C                |  14 C                |    90.00
   13 C                |  12 C                |  15 C                |    90.00
   14 C                |  12 C                |  15 C                |    90.00
    5 H                |  13 C                |   9 C                |   125.26
    5 H                |  13 C                |  11 C                |   125.26
    5 H                |  13 C                |  12 C                |   125.26
    9 C                |  13 C                |  11 C                |    90.00
    9 C                |  13 C                |  12 C                |    90.00
   11 C                |  13 C                |  12 C                |    90.00
    6 H                |  14 C                |  10 C                |   125.26
    6 H                |  14 C                |  11 C                |   125.26
    6 H                |  14 C                |  12 C                |   125.26
   10 C                |  14 C                |  11 C                |    90.00
   10 C                |  14 C                |  12 C                |    90.00
   11 C                |  14 C                |  12 C                |    90.00
    7 H                |  15 C                |   9 C                |   125.26
    7 H                |  15 C                |  10 C                |   125.26
    7 H                |  15 C                |  12 C                |   125.26
    9 C                |  15 C                |  10 C                |    90.00
    9 C                |  15 C                |  12 C                |    90.00
   10 C                |  15 C                |  12 C                |    90.00
    8 H                |  16 C                |   9 C                |   125.26
    8 H                |  16 C                |  10 C                |   125.26
    8 H                |  16 C                |  11 C                |   125.26
    9 C                |  16 C                |  10 C                |    90.00
    9 C                |  16 C                |  11 C                |    90.00
   10 C                |  16 C                |  11 C                |    90.00
 ------------------------------------------------------------------------------
                            number of included internuclear angles:         48
 ==============================================================================




 Task  times  cpu:    58026.9s     wall:    51313.0s
 Summary of allocated global arrays
-----------------------------------
  No active global arrays



                         GA Statistics for process    0
                         ------------------------------

       create   destroy   get      put      acc     scatter   gather  read&inc
calls: 2615     2615     1.24e+08 9.15e+06 6.14e+07    0        0     1.71e+05 
number of processes/call 1.00e+00 1.00e+00 1.00e+00 0.00e+00 0.00e+00
bytes total:             2.36e+11 3.70e+11 4.61e+10 0.00e+00 0.00e+00 1.36e+06
bytes remote:            0.00e+00 0.00e+00 0.00e+00 0.00e+00 0.00e+00 0.00e+00
Max memory consumed for GA by this process: 1048438440 bytes
MA_summarize_allocated_blocks: starting scan ...
MA_summarize_allocated_blocks: scan completed: 0 heap blocks, 0 stack blocks
MA usage statistics:

	allocation statistics:
					      heap	     stack
					      ----	     -----
	current number of blocks	         0	         0
	maximum number of blocks	        25	        36
	current total bytes		         0	         0
	maximum total bytes		    150480	 539828936
	maximum total K-bytes		       151	    539829
	maximum total M-bytes		         1	       540


                                NWChem Input Module
                                -------------------





                                     CITATION
                                     --------
                Please cite the following reference when publishing
                           results obtained with NWChem:

                 M. Valiev, E.J. Bylaska, N. Govind, K. Kowalski,
              T.P. Straatsma, H.J.J. van Dam, D. Wang, J. Nieplocha,
                        E. Apra, T.L. Windus, W.A. de Jong
                 "NWChem: a comprehensive and scalable open-source
                  solution for large scale molecular simulations"
                      Comput. Phys. Commun. 181, 1477 (2010)
                           doi:10.1016/j.cpc.2010.04.018

                                      AUTHORS
                                      -------
          E. Apra, E. J. Bylaska, W. A. de Jong, N. Govind, K. Kowalski,
       T. P. Straatsma, M. Valiev, H. J. J. van Dam, D. Wang, T. L. Windus,
        J. Hammond, J. Autschbach, K. Bhaskaran-Nair, J. Brabec, K. Lopata,
       S. A. Fischer, S. Krishnamoorthy, W. Ma, M. Klemm, O. Villa, Y. Chen,
    V. Anisimov, F. Aquino, S. Hirata, M. T. Hackler, T. Risthaus, M. Malagoli,
       A. Marenich, A. Otero-de-la-Roza, J. Mullin, P. Nichols, R. Peverati,
     J. Pittner, Y. Zhao, P.-D. Fan, A. Fonari, M. Williamson, R. J. Harrison,
       J. R. Rehr, M. Dupuis, D. Silverstein, D. M. A. Smith, J. Nieplocha,
        V. Tipparaju, M. Krishnan, B. E. Van Kuiken, A. Vazquez-Mayagoitia,
        L. Jensen, M. Swart, Q. Wu, T. Van Voorhis, A. A. Auer, M. Nooijen,
      L. D. Crosby, E. Brown, G. Cisneros, G. I. Fann, H. Fruchtl, J. Garza,
        K. Hirao, R. A. Kendall, J. A. Nichols, K. Tsemekhman, K. Wolinski,
     J. Anchell, D. E. Bernholdt, P. Borowski, T. Clark, D. Clerc, H. Dachsel,
   M. J. O. Deegan, K. Dyall, D. Elwood, E. Glendening, M. Gutowski, A. C. Hess,
         J. Jaffe, B. G. Johnson, J. Ju, R. Kobayashi, R. Kutteh, Z. Lin,
   R. Littlefield, X. Long, B. Meng, T. Nakajima, S. Niu, L. Pollack, M. Rosing,
   K. Glaesemann, G. Sandrone, M. Stave, H. Taylor, G. Thomas, J. H. van Lenthe,
                               A. T. Wong, Z. Zhang.

 Total times  cpu:    58027.0s     wall:    51313.1s
