 argument  1 = cubane.nw
                                         
                                         


              Northwest Computational Chemistry Package (NWChem) 6.5
              ------------------------------------------------------


                    Environmental Molecular Sciences Laboratory
                       Pacific Northwest National Laboratory
                                Richland, WA 99352

                              Copyright (c) 1994-2014
                       Pacific Northwest National Laboratory
                            Battelle Memorial Institute

             NWChem is an open-source computational chemistry package
                        distributed under the terms of the
                      Educational Community License (ECL) 2.0
             A copy of the license is included with this distribution
                              in the LICENSE.TXT file

                                  ACKNOWLEDGMENT
                                  --------------

            This software and its documentation were developed at the
            EMSL at Pacific Northwest National Laboratory, a multiprogram
            national laboratory, operated for the U.S. Department of Energy
            by Battelle under Contract Number DE-AC05-76RL01830. Support
            for this work was provided by the Department of Energy Office
            of Biological and Environmental Research, Office of Basic
            Energy Sciences, and the Office of Advanced Scientific Computing.


           Job information
           ---------------

    hostname        = kbob-G41MT-S2
    program         = nwchem
    date            = Sun Oct 19 19:15:05 2014

    compiled        = Ср._сент._17_22:58:30_2014
    source          = /opt/Nwchem-6.5.revision26243-src.2014-09-10
    nwchem branch   = 6.5
    nwchem revision = 26243
    ga revision     = 10506
    input           = cubane.nw
    prefix          = cubane.
    data base       = ./cubane.db
    status          = startup
    nproc           =        2
    time left       =     -1s



           Memory information
           ------------------

    heap     =   63211008 doubles =    482.3 Mbytes
    stack    =   63211005 doubles =    482.3 Mbytes
    global   =  126422016 doubles =    964.5 Mbytes (distinct from heap & stack)
    total    =  252844029 doubles =   1929.0 Mbytes
    verify   = yes
    hardfail = no 


           Directory information
           ---------------------

  0 permanent = .
  0 scratch   = .




                                NWChem Input Module
                                -------------------


                     cubane HF/def2-SVP geometry optimization
                     ----------------------------------------

 Scaling coordinates for geometry "geometry" by  1.889725989
 (inverse scale =  0.529177249)

 Turning off AUTOSYM since
 SYMMETRY directive was detected!


          ------
          auto-z
          ------


                             Geometry "geometry" -> ""
                             -------------------------

 Output coordinates in angstroms (scale by  1.889725989 to convert to a.u.)

  No.       Tag          Charge          X              Y              Z
 ---- ---------------- ---------- -------------- -------------- --------------
    1 H                    1.0000     1.40748294     1.40748294     1.40748294
    2 H                    1.0000    -1.40748294    -1.40748294     1.40748294
    3 H                    1.0000    -1.40748294     1.40748294    -1.40748294
    4 H                    1.0000     1.40748294    -1.40748294    -1.40748294
    5 H                    1.0000     1.40748294     1.40748294    -1.40748294
    6 H                    1.0000    -1.40748294    -1.40748294    -1.40748294
    7 H                    1.0000     1.40748294    -1.40748294     1.40748294
    8 H                    1.0000    -1.40748294     1.40748294     1.40748294
    9 C                    6.0000     0.77918220     0.77918220     0.77918220
   10 C                    6.0000    -0.77918220    -0.77918220     0.77918220
   11 C                    6.0000    -0.77918220     0.77918220    -0.77918220
   12 C                    6.0000     0.77918220    -0.77918220    -0.77918220
   13 C                    6.0000     0.77918220     0.77918220    -0.77918220
   14 C                    6.0000    -0.77918220    -0.77918220    -0.77918220
   15 C                    6.0000     0.77918220    -0.77918220     0.77918220
   16 C                    6.0000    -0.77918220     0.77918220     0.77918220

      Atomic Mass 
      ----------- 

      H                  1.007825
      C                 12.000000


 Effective nuclear repulsion energy (a.u.)     369.4209687251

            Nuclear Dipole moment (a.u.) 
            ----------------------------
        X                 Y               Z
 ---------------- ---------------- ----------------
     0.0000000000     0.0000000000     0.0000000000

      Symmetry information
      --------------------

 Group name              Oh       
 Group number             44
 Group order              48
 No. of unique centers     2

      Symmetry unique atoms

     1    9



                                Z-matrix (autoz)
                                -------- 

 Units are Angstrom for bonds and degrees for angles

      Type          Name      I     J     K     L     M      Value
      ----------- --------  ----- ----- ----- ----- ----- ----------
    1 Stretch                  1     9                       1.08825
    2 Stretch                  2    10                       1.08825
    3 Stretch                  3    11                       1.08825
    4 Stretch                  4    12                       1.08825
    5 Stretch                  5    13                       1.08825
    6 Stretch                  6    14                       1.08825
    7 Stretch                  7    15                       1.08825
    8 Stretch                  8    16                       1.08825
    9 Stretch                  9    13                       1.55836
   10 Stretch                  9    15                       1.55836
   11 Stretch                  9    16                       1.55836
   12 Stretch                 10    14                       1.55836
   13 Stretch                 10    15                       1.55836
   14 Stretch                 10    16                       1.55836
   15 Stretch                 11    13                       1.55836
   16 Stretch                 11    14                       1.55836
   17 Stretch                 11    16                       1.55836
   18 Stretch                 12    13                       1.55836
   19 Stretch                 12    14                       1.55836
   20 Stretch                 12    15                       1.55836
   21 Bend                     1     9    13               125.26439
   22 Bend                     1     9    15               125.26439
   23 Bend                     1     9    16               125.26439
   24 Bend                     2    10    14               125.26439
   25 Bend                     2    10    15               125.26439
   26 Bend                     2    10    16               125.26439
   27 Bend                     3    11    13               125.26439
   28 Bend                     3    11    14               125.26439
   29 Bend                     3    11    16               125.26439
   30 Bend                     4    12    13               125.26439
   31 Bend                     4    12    14               125.26439
   32 Bend                     4    12    15               125.26439
   33 Bend                     5    13     9               125.26439
   34 Bend                     5    13    11               125.26439
   35 Bend                     5    13    12               125.26439
   36 Bend                     6    14    10               125.26439
   37 Bend                     6    14    11               125.26439
   38 Bend                     6    14    12               125.26439
   39 Bend                     7    15     9               125.26439
   40 Bend                     7    15    10               125.26439
   41 Bend                     7    15    12               125.26439
   42 Bend                     8    16     9               125.26439
   43 Bend                     8    16    10               125.26439
   44 Bend                     8    16    11               125.26439
   45 Bend                     9    13    11                90.00000
   46 Bend                     9    13    12                90.00000
   47 Bend                     9    15    10                90.00000
   48 Bend                     9    15    12                90.00000
   49 Bend                     9    16    10                90.00000
   50 Bend                     9    16    11                90.00000
   51 Bend                    10    14    11                90.00000
   52 Bend                    10    14    12                90.00000
   53 Bend                    10    15    12                90.00000
   54 Bend                    10    16    11                90.00000
   55 Bend                    11    13    12                90.00000
   56 Bend                    11    14    12                90.00000
   57 Bend                    13     9    15                90.00000
   58 Bend                    13     9    16                90.00000
   59 Bend                    13    11    14                90.00000
   60 Bend                    13    11    16                90.00000
   61 Bend                    13    12    14                90.00000
   62 Bend                    13    12    15                90.00000
   63 Bend                    14    10    15                90.00000
   64 Bend                    14    10    16                90.00000
   65 Bend                    14    11    16                90.00000
   66 Bend                    14    12    15                90.00000
   67 Bend                    15     9    16                90.00000
   68 Bend                    15    10    16                90.00000
   69 Torsion                  1     9    13     5           0.00000
   70 Torsion                  1     9    13    11        -135.00000
   71 Torsion                  1     9    13    12         135.00000
   72 Torsion                  1     9    15     7           0.00000
   73 Torsion                  1     9    15    10         135.00000
   74 Torsion                  1     9    15    12        -135.00000
   75 Torsion                  1     9    16     8           0.00000
   76 Torsion                  1     9    16    10        -135.00000
   77 Torsion                  1     9    16    11         135.00000
   78 Torsion                  2    10    14     6           0.00000
   79 Torsion                  2    10    14    11         135.00000
   80 Torsion                  2    10    14    12        -135.00000
   81 Torsion                  2    10    15     7           0.00000
   82 Torsion                  2    10    15     9        -135.00000
   83 Torsion                  2    10    15    12         135.00000
   84 Torsion                  2    10    16     8           0.00000
   85 Torsion                  2    10    16     9         135.00000
   86 Torsion                  2    10    16    11        -135.00000
   87 Torsion                  3    11    13     5           0.00000
   88 Torsion                  3    11    13     9         135.00000
   89 Torsion                  3    11    13    12        -135.00000
   90 Torsion                  3    11    14     6           0.00000
   91 Torsion                  3    11    14    10        -135.00000
   92 Torsion                  3    11    14    12         135.00000
   93 Torsion                  3    11    16     8           0.00000
   94 Torsion                  3    11    16     9        -135.00000
   95 Torsion                  3    11    16    10         135.00000
   96 Torsion                  4    12    13     5           0.00000
   97 Torsion                  4    12    13     9        -135.00000
   98 Torsion                  4    12    13    11         135.00000
   99 Torsion                  4    12    14     6           0.00000
  100 Torsion                  4    12    14    10         135.00000
  101 Torsion                  4    12    14    11        -135.00000
  102 Torsion                  4    12    15     7           0.00000
  103 Torsion                  4    12    15     9         135.00000
  104 Torsion                  4    12    15    10        -135.00000
  105 Torsion                  5    13     9    15        -135.00000
  106 Torsion                  5    13     9    16         135.00000
  107 Torsion                  5    13    11    14         135.00000
  108 Torsion                  5    13    11    16        -135.00000
  109 Torsion                  5    13    12    14        -135.00000
  110 Torsion                  5    13    12    15         135.00000
  111 Torsion                  6    14    10    15         135.00000
  112 Torsion                  6    14    10    16        -135.00000
  113 Torsion                  6    14    11    13        -135.00000
  114 Torsion                  6    14    11    16         135.00000
  115 Torsion                  6    14    12    13         135.00000
  116 Torsion                  6    14    12    15        -135.00000
  117 Torsion                  7    15     9    13         135.00000
  118 Torsion                  7    15     9    16        -135.00000
  119 Torsion                  7    15    10    14        -135.00000
  120 Torsion                  7    15    10    16         135.00000
  121 Torsion                  7    15    12    13        -135.00000
  122 Torsion                  7    15    12    14         135.00000
  123 Torsion                  8    16     9    13        -135.00000
  124 Torsion                  8    16     9    15         135.00000
  125 Torsion                  8    16    10    14         135.00000
  126 Torsion                  8    16    10    15        -135.00000
  127 Torsion                  8    16    11    13         135.00000
  128 Torsion                  8    16    11    14        -135.00000
  129 Torsion                  9    13    11    14         -90.00000
  130 Torsion                  9    13    11    16           0.00000
  131 Torsion                  9    13    12    14          90.00000
  132 Torsion                  9    13    12    15           0.00000
  133 Torsion                  9    15    10    14          90.00000
  134 Torsion                  9    15    10    16           0.00000
  135 Torsion                  9    15    12    13           0.00000
  136 Torsion                  9    15    12    14         -90.00000
  137 Torsion                  9    16    10    14         -90.00000
  138 Torsion                  9    16    10    15           0.00000
  139 Torsion                  9    16    11    13           0.00000
  140 Torsion                  9    16    11    14          90.00000
  141 Torsion                 10    14    11    13          90.00000
  142 Torsion                 10    14    11    16           0.00000
  143 Torsion                 10    14    12    13         -90.00000
  144 Torsion                 10    14    12    15           0.00000
  145 Torsion                 10    15     9    13         -90.00000
  146 Torsion                 10    15     9    16           0.00000
  147 Torsion                 10    15    12    13          90.00000
  148 Torsion                 10    15    12    14           0.00000
  149 Torsion                 10    16     9    13          90.00000
  150 Torsion                 10    16     9    15           0.00000
  151 Torsion                 10    16    11    13         -90.00000
  152 Torsion                 10    16    11    14           0.00000
  153 Torsion                 11    13     9    15          90.00000
  154 Torsion                 11    13     9    16           0.00000
  155 Torsion                 11    13    12    14           0.00000
  156 Torsion                 11    13    12    15         -90.00000
  157 Torsion                 11    14    10    15         -90.00000
  158 Torsion                 11    14    10    16           0.00000
  159 Torsion                 11    14    12    13           0.00000
  160 Torsion                 11    14    12    15          90.00000
  161 Torsion                 11    16     9    13           0.00000
  162 Torsion                 11    16     9    15         -90.00000
  163 Torsion                 11    16    10    14           0.00000
  164 Torsion                 11    16    10    15          90.00000
  165 Torsion                 12    13     9    15           0.00000
  166 Torsion                 12    13     9    16         -90.00000
  167 Torsion                 12    13    11    14           0.00000
  168 Torsion                 12    13    11    16          90.00000
  169 Torsion                 12    14    10    15           0.00000
  170 Torsion                 12    14    10    16          90.00000
  171 Torsion                 12    14    11    13           0.00000
  172 Torsion                 12    14    11    16         -90.00000
  173 Torsion                 12    15     9    13           0.00000
  174 Torsion                 12    15     9    16          90.00000
  175 Torsion                 12    15    10    14           0.00000
  176 Torsion                 12    15    10    16         -90.00000


            XYZ format geometry
            -------------------
    16
 geometry
 H                     1.40748294     1.40748294     1.40748294
 H                    -1.40748294    -1.40748294     1.40748294
 H                    -1.40748294     1.40748294    -1.40748294
 H                     1.40748294    -1.40748294    -1.40748294
 H                     1.40748294     1.40748294    -1.40748294
 H                    -1.40748294    -1.40748294    -1.40748294
 H                     1.40748294    -1.40748294     1.40748294
 H                    -1.40748294     1.40748294     1.40748294
 C                     0.77918220     0.77918220     0.77918220
 C                    -0.77918220    -0.77918220     0.77918220
 C                    -0.77918220     0.77918220    -0.77918220
 C                     0.77918220    -0.77918220    -0.77918220
 C                     0.77918220     0.77918220    -0.77918220
 C                    -0.77918220    -0.77918220    -0.77918220
 C                     0.77918220    -0.77918220     0.77918220
 C                    -0.77918220     0.77918220     0.77918220

 ==============================================================================
                                internuclear distances
 ------------------------------------------------------------------------------
       center one      |      center two      | atomic units |  angstroms
 ------------------------------------------------------------------------------
    9 C                |   1 H                |     2.05649  |     1.08825
   10 C                |   2 H                |     2.05649  |     1.08825
   11 C                |   3 H                |     2.05649  |     1.08825
   12 C                |   4 H                |     2.05649  |     1.08825
   13 C                |   5 H                |     2.05649  |     1.08825
   13 C                |   9 C                |     2.94488  |     1.55836
   13 C                |  11 C                |     2.94488  |     1.55836
   13 C                |  12 C                |     2.94488  |     1.55836
   14 C                |   6 H                |     2.05649  |     1.08825
   14 C                |  10 C                |     2.94488  |     1.55836
   14 C                |  11 C                |     2.94488  |     1.55836
   14 C                |  12 C                |     2.94488  |     1.55836
   15 C                |   7 H                |     2.05649  |     1.08825
   15 C                |   9 C                |     2.94488  |     1.55836
   15 C                |  10 C                |     2.94488  |     1.55836
   15 C                |  12 C                |     2.94488  |     1.55836
   16 C                |   8 H                |     2.05649  |     1.08825
   16 C                |   9 C                |     2.94488  |     1.55836
   16 C                |  10 C                |     2.94488  |     1.55836
   16 C                |  11 C                |     2.94488  |     1.55836
 ------------------------------------------------------------------------------
                         number of included internuclear distances:         20
 ==============================================================================



 ==============================================================================
                                 internuclear angles
 ------------------------------------------------------------------------------
        center 1       |       center 2       |       center 3       |  degrees
 ------------------------------------------------------------------------------
    1 H                |   9 C                |  13 C                |   125.26
    1 H                |   9 C                |  15 C                |   125.26
    1 H                |   9 C                |  16 C                |   125.26
   13 C                |   9 C                |  15 C                |    90.00
   13 C                |   9 C                |  16 C                |    90.00
   15 C                |   9 C                |  16 C                |    90.00
    2 H                |  10 C                |  14 C                |   125.26
    2 H                |  10 C                |  15 C                |   125.26
    2 H                |  10 C                |  16 C                |   125.26
   14 C                |  10 C                |  15 C                |    90.00
   14 C                |  10 C                |  16 C                |    90.00
   15 C                |  10 C                |  16 C                |    90.00
    3 H                |  11 C                |  13 C                |   125.26
    3 H                |  11 C                |  14 C                |   125.26
    3 H                |  11 C                |  16 C                |   125.26
   13 C                |  11 C                |  14 C                |    90.00
   13 C                |  11 C                |  16 C                |    90.00
   14 C                |  11 C                |  16 C                |    90.00
    4 H                |  12 C                |  13 C                |   125.26
    4 H                |  12 C                |  14 C                |   125.26
    4 H                |  12 C                |  15 C                |   125.26
   13 C                |  12 C                |  14 C                |    90.00
   13 C                |  12 C                |  15 C                |    90.00
   14 C                |  12 C                |  15 C                |    90.00
    5 H                |  13 C                |   9 C                |   125.26
    5 H                |  13 C                |  11 C                |   125.26
    5 H                |  13 C                |  12 C                |   125.26
    9 C                |  13 C                |  11 C                |    90.00
    9 C                |  13 C                |  12 C                |    90.00
   11 C                |  13 C                |  12 C                |    90.00
    6 H                |  14 C                |  10 C                |   125.26
    6 H                |  14 C                |  11 C                |   125.26
    6 H                |  14 C                |  12 C                |   125.26
   10 C                |  14 C                |  11 C                |    90.00
   10 C                |  14 C                |  12 C                |    90.00
   11 C                |  14 C                |  12 C                |    90.00
    7 H                |  15 C                |   9 C                |   125.26
    7 H                |  15 C                |  10 C                |   125.26
    7 H                |  15 C                |  12 C                |   125.26
    9 C                |  15 C                |  10 C                |    90.00
    9 C                |  15 C                |  12 C                |    90.00
   10 C                |  15 C                |  12 C                |    90.00
    8 H                |  16 C                |   9 C                |   125.26
    8 H                |  16 C                |  10 C                |   125.26
    8 H                |  16 C                |  11 C                |   125.26
    9 C                |  16 C                |  10 C                |    90.00
    9 C                |  16 C                |  11 C                |    90.00
   10 C                |  16 C                |  11 C                |    90.00
 ------------------------------------------------------------------------------
                            number of included internuclear angles:         48
 ==============================================================================



  library name resolved from: environment
  library file name is: </opt/Nwchem-6.5.revision26243-src.2014-09-10/src/basis/libraries/>
  
                      Basis "ao basis" -> "" (spherical)
                      -----
  H (Hydrogen)
  ------------
            Exponent  Coefficients 
       -------------- ---------------------------------------------------------
  1 S  1.30107010E+01  0.019682
  1 S  1.96225720E+00  0.137965
  1 S  4.44537960E-01  0.478319

  2 S  1.21949620E-01  1.000000

  3 P  8.00000000E-01  1.000000

  C (Carbon)
  ----------
            Exponent  Coefficients 
       -------------- ---------------------------------------------------------
  1 S  1.23840169E+03  0.005457
  1 S  1.86290050E+02  0.040638
  1 S  4.22511763E+01  0.180256
  1 S  1.16765579E+01  0.463151
  1 S  3.59305065E+00  0.440872

  2 S  4.02451474E-01  1.000000

  3 S  1.30901827E-01  1.000000

  4 P  9.46809706E+00  0.038388
  4 P  2.01035451E+00  0.211170
  4 P  5.47710047E-01  0.513282

  5 P  1.52686138E-01  1.000000

  6 D  8.00000000E-01  1.000000



 Summary of "ao basis" -> "" (spherical)
 ------------------------------------------------------------------------------
       Tag                 Description            Shells   Functions and Types
 ---------------- ------------------------------  ------  ---------------------
 H                          def2-SVP                 3        5   2s1p
 C                          def2-SVP                 6       14   3s2p1d




                           NWChem Geometry Optimization
                           ----------------------------




                     cubane HF/def2-SVP geometry optimization


 maximum gradient threshold         (gmax) =   0.000450
 rms gradient threshold             (grms) =   0.000300
 maximum cartesian step threshold   (xmax) =   0.001800
 rms cartesian step threshold       (xrms) =   0.001200
 fixed trust radius                (trust) =   0.300000
 maximum step size to saddle      (sadstp) =   0.100000
 energy precision                  (eprec) =   1.0D-07
 maximum number of steps          (nptopt) =   20
 initial hessian option           (inhess) =    0
 line search option               (linopt) =    1
 hessian update option            (modupd) =    1
 saddle point option              (modsad) =    0
 initial eigen-mode to follow     (moddir) =    0
 initial variable to follow       (vardir) =    0
 follow first negative mode     (firstneg) =    T
 apply conjugacy                    (opcg) =    F
 source of zmatrix                         =   autoz   


          -------------------
          Energy Minimization
          -------------------


 Names of Z-matrix variables 
    1              2              3              4              5         
    6              7              8              9             10         
   11             12             13             14             15         
   16             17             18             19             20         
   21             22             23             24             25         
   26             27             28             29             30         
   31             32             33             34             35         
   36             37             38             39             40         
   41             42             43             44             45         
   46             47             48             49             50         
   51             52             53             54             55         
   56             57             58             59             60         
   61             62             63             64             65         
   66             67             68             69             70         
   71             72             73             74             75         
   76             77             78             79             80         
   81             82             83             84             85         
   86             87             88             89             90         
   91             92             93             94             95         
   96             97             98             99            100         
  101            102            103            104            105         
  106            107            108            109            110         
  111            112            113            114            115         
  116            117            118            119            120         
  121            122            123            124            125         
  126            127            128            129            130         
  131            132            133            134            135         
  136            137            138            139            140         
  141            142            143            144            145         
  146            147            148            149            150         
  151            152            153            154            155         
  156            157            158            159            160         
  161            162            163            164            165         
  166            167            168            169            170         
  171            172            173            174            175         
  176         

 Variables with the same non-blank name are constrained to be equal


 Using diagonal initial Hessian 
 Scaling for Hessian diagonals: bonds = 1.00  angles = 0.25  torsions = 0.10

          --------
          Step   0
          --------


                         Geometry "geometry" -> "geometry"
                         ---------------------------------

 Output coordinates in angstroms (scale by  1.889725989 to convert to a.u.)

  No.       Tag          Charge          X              Y              Z
 ---- ---------------- ---------- -------------- -------------- --------------
    1 H                    1.0000     1.40748294     1.40748294     1.40748294
    2 H                    1.0000    -1.40748294    -1.40748294     1.40748294
    3 H                    1.0000    -1.40748294     1.40748294    -1.40748294
    4 H                    1.0000     1.40748294    -1.40748294    -1.40748294
    5 H                    1.0000     1.40748294     1.40748294    -1.40748294
    6 H                    1.0000    -1.40748294    -1.40748294    -1.40748294
    7 H                    1.0000     1.40748294    -1.40748294     1.40748294
    8 H                    1.0000    -1.40748294     1.40748294     1.40748294
    9 C                    6.0000     0.77918220     0.77918220     0.77918220
   10 C                    6.0000    -0.77918220    -0.77918220     0.77918220
   11 C                    6.0000    -0.77918220     0.77918220    -0.77918220
   12 C                    6.0000     0.77918220    -0.77918220    -0.77918220
   13 C                    6.0000     0.77918220     0.77918220    -0.77918220
   14 C                    6.0000    -0.77918220    -0.77918220    -0.77918220
   15 C                    6.0000     0.77918220    -0.77918220     0.77918220
   16 C                    6.0000    -0.77918220     0.77918220     0.77918220

      Atomic Mass 
      ----------- 

      H                  1.007825
      C                 12.000000


 Effective nuclear repulsion energy (a.u.)     369.4209687251

            Nuclear Dipole moment (a.u.) 
            ----------------------------
        X                 Y               Z
 ---------------- ---------------- ----------------
     0.0000000000     0.0000000000     0.0000000000

      Symmetry information
      --------------------

 Group name              Oh       
 Group number             44
 Group order              48
 No. of unique centers     2

      Symmetry unique atoms

     1    9

                                 NWChem SCF Module
                                 -----------------


                     cubane HF/def2-SVP geometry optimization



  ao basis        = "ao basis"
  functions       =   152
  atoms           =    16
  closed shells   =    28
  open shells     =     0
  charge          =   0.00
  wavefunction    = RHF 
  input vectors   = atomic
  output vectors  = ./cubane.movecs
  use symmetry    = T
  symmetry adapt  = T


 Summary of "ao basis" -> "ao basis" (spherical)
 ------------------------------------------------------------------------------
       Tag                 Description            Shells   Functions and Types
 ---------------- ------------------------------  ------  ---------------------
 H                          def2-SVP                 3        5   2s1p
 C                          def2-SVP                 6       14   3s2p1d


      Symmetry analysis of basis
      --------------------------

        a1g         9
        a1u         0
        a2g         0
        a2u         9
        eg         10
        eu         10
        t1g        15
        t1u        42
        t2g        42
        t2u        15


 Forming initial guess at       1.2s


      Superposition of Atomic Density Guess
      -------------------------------------

 Sum of atomic energies:        -304.99271631

      Non-variational initial energy
      ------------------------------

 Total energy =    -311.805479
 1-e energy   =   -1141.341908
 2-e energy   =     460.115460
 HOMO         =      -0.292695
 LUMO         =       0.063261


      Symmetry analysis of molecular orbitals - initial
      -------------------------------------------------

  Numbering of irreducible representations: 

     1 a1g         2 a1u         3 a2g         4 a2u         5 eg      
     6 eu          7 t1g         8 t1u         9 t2g        10 t2u     

  Orbital symmetries:

     1 a1g         2 t1u         3 t1u         4 t1u         5 t2g     
     6 t2g         7 t2g         8 a2u         9 a1g        10 t1u     
    11 t1u        12 t1u        13 t2g        14 t2g        15 t2g     
    16 a1g        17 a2u        18 eg         19 eg         20 t1u     
    21 t1u        22 t1u        23 t2u        24 t2u        25 t2u     
    26 t2g        27 t2g        28 t2g        29 t1u        30 t1u     
    31 t1u        32 a1g        33 t1u        34 t1u        35 t1u     
    36 t2g        37 t2g        38 t2g     


 Starting SCF solution at       3.5s



 ----------------------------------------------
         Quadratically convergent ROHF

 Convergence threshold     :          1.000E-04
 Maximum no. of iterations :           30
 Final Fock-matrix accuracy:          1.000E-07
 ----------------------------------------------


 Integral file          = ./cubane.aoints.0
 Record size in doubles =  65536        No. of integs per rec  =  43688
 Max. records in memory =     30        Max. records in file   =  22339
 No. of bits per label  =      8        No. of bits per value  =     64


 #quartets = 1.191D+05 #integrals = 2.184D+06 #direct =  0.0% #cached =100.0%


File balance: exchanges=     1  moved=    14  time=   0.0


              iter       energy          gnorm     gmax       time
             ----- ------------------- --------- --------- --------
                 1     -307.0876632856  9.26D-01  2.34D-01      3.3
                 2     -307.1648299329  1.60D-01  3.69D-02      5.1
                 3     -307.1666218809  4.42D-03  9.93D-04      6.8
                 4     -307.1666239382  3.23D-06  1.08D-06      8.0


       Final RHF  results 
       ------------------ 

         Total SCF energy =   -307.166623938188
      One-electron energy =  -1147.375948146795
      Two-electron energy =    470.788355483499
 Nuclear repulsion energy =    369.420968725108

        Time for solution =      6.8s



       Symmetry analysis of molecular orbitals - final
       -----------------------------------------------

  Numbering of irreducible representations: 

     1 a1g         2 a1u         3 a2g         4 a2u         5 eg      
     6 eu          7 t1g         8 t1u         9 t2g        10 t2u     

  Orbital symmetries:

     1 a1g         2 t1u         3 t1u         4 t1u         5 t2g     
     6 t2g         7 t2g         8 a2u         9 a1g        10 t1u     
    11 t1u        12 t1u        13 t2g        14 t2g        15 t2g     
    16 a1g        17 a2u        18 eg         19 eg         20 t1u     
    21 t1u        22 t1u        23 t2u        24 t2u        25 t2u     
    26 t2g        27 t2g        28 t2g        29 a1g        30 t1u     
    31 t1u        32 t1u        33 t1u        34 t1u        35 t1u     
    36 t2g        37 t2g        38 t2g     

             Final eigenvalues
             -----------------

              1      
    1  -11.2232
    2  -11.2228
    3  -11.2228
    4  -11.2228
    5  -11.2223
    6  -11.2223
    7  -11.2223
    8  -11.2218
    9   -1.2523
   10   -0.9778
   11   -0.9778
   12   -0.9778
   13   -0.7616
   14   -0.7616
   15   -0.7616
   16   -0.7145
   17   -0.6353
   18   -0.5898
   19   -0.5898
   20   -0.5860
   21   -0.5860
   22   -0.5860
   23   -0.3987
   24   -0.3987
   25   -0.3987
   26   -0.3886
   27   -0.3886
   28   -0.3886
   29    0.1831
   30    0.2125
   31    0.2125
   32    0.2125
   33    0.2576
   34    0.2576
   35    0.2576
   36    0.2584
   37    0.2584
   38    0.2584

                       ROHF Final Molecular Orbital Analysis
                       -------------------------------------

 Vector    9  Occ=2.000000D+00  E=-1.252255D+00  Symmetry=a1g
              MO Center=  2.4D-18, -6.6D-19, -6.2D-17, r^2= 1.6D+00
   Bfn.  Coefficient  Atom+Function         Bfn.  Coefficient  Atom+Function  
  ----- ------------  ---------------      ----- ------------  ---------------
    42      0.170218   9 C  s                56      0.170218  10 C  s         
    70      0.170218  11 C  s                84      0.170218  12 C  s         
    98      0.170218  13 C  s               112      0.170218  14 C  s         
   126      0.170218  15 C  s               140      0.170218  16 C  s         

 Vector   10  Occ=2.000000D+00  E=-9.778126D-01  Symmetry=t1u
              MO Center=  0.0D+00, -8.7D-17,  5.7D-17, r^2= 2.5D+00
   Bfn.  Coefficient  Atom+Function         Bfn.  Coefficient  Atom+Function  
  ----- ------------  ---------------      ----- ------------  ---------------
    70      0.250945  11 C  s               126     -0.250945  15 C  s         
    56     -0.225749  10 C  s                98      0.225749  13 C  s         
    71      0.152006  11 C  s               127     -0.152006  15 C  s         

 Vector   11  Occ=2.000000D+00  E=-9.778126D-01  Symmetry=t1u
              MO Center= -1.9D-16, -1.7D-16, -9.0D-17, r^2= 2.5D+00
   Bfn.  Coefficient  Atom+Function         Bfn.  Coefficient  Atom+Function  
  ----- ------------  ---------------      ----- ------------  ---------------
    84      0.283148  12 C  s               140     -0.283148  16 C  s         
    85      0.171512  12 C  s               141     -0.171512  16 C  s         
    42     -0.161660   9 C  s               112      0.161660  14 C  s         
    83     -0.150815  12 C  s               139      0.150815  16 C  s         

 Vector   12  Occ=2.000000D+00  E=-9.778126D-01  Symmetry=t1u
              MO Center= -3.5D-18, -6.9D-17, -3.0D-16, r^2= 2.5D+00
   Bfn.  Coefficient  Atom+Function         Bfn.  Coefficient  Atom+Function  
  ----- ------------  ---------------      ----- ------------  ---------------
    42      0.250916   9 C  s               112     -0.250916  14 C  s         
    70     -0.169200  11 C  s               126      0.169200  15 C  s         
    56     -0.157552  10 C  s                98      0.157552  13 C  s         
    43      0.151988   9 C  s               113     -0.151988  14 C  s         

 Vector   13  Occ=2.000000D+00  E=-7.615732D-01  Symmetry=t2g
              MO Center= -2.8D-17,  1.1D-16, -5.6D-17, r^2= 4.1D+00
   Bfn.  Coefficient  Atom+Function         Bfn.  Coefficient  Atom+Function  
  ----- ------------  ---------------      ----- ------------  ---------------
    85      0.402709  12 C  s               141      0.402709  16 C  s         
    84      0.246364  12 C  s               140      0.246364  16 C  s         
    71     -0.215688  11 C  s               127     -0.215688  15 C  s         
    57     -0.191288  10 C  s                99     -0.191288  13 C  s         
    16      0.189853   4 H  s                36      0.189853   8 H  s         

 Vector   14  Occ=2.000000D+00  E=-7.615732D-01  Symmetry=t2g
              MO Center=  8.3D-17,  1.4D-16, -2.2D-16, r^2= 4.1D+00
   Bfn.  Coefficient  Atom+Function         Bfn.  Coefficient  Atom+Function  
  ----- ------------  ---------------      ----- ------------  ---------------
    57      0.378291  10 C  s                99      0.378291  13 C  s         
    56      0.231425  10 C  s                98      0.231425  13 C  s         
    43     -0.223315   9 C  s               113     -0.223315  14 C  s         
    71     -0.219480  11 C  s               127     -0.219480  15 C  s         
     6      0.178341   2 H  s                21      0.178341   5 H  s         

 Vector   15  Occ=2.000000D+00  E=-7.615732D-01  Symmetry=t2g
              MO Center=  1.1D-16,  2.2D-16,  1.7D-16, r^2= 4.1D+00
   Bfn.  Coefficient  Atom+Function         Bfn.  Coefficient  Atom+Function  
  ----- ------------  ---------------      ----- ------------  ---------------
    43      0.366185   9 C  s               113      0.366185  14 C  s         
    71     -0.298808  11 C  s               127     -0.298808  15 C  s         
    42      0.224019   9 C  s               112      0.224019  14 C  s         
    70     -0.182801  11 C  s               126     -0.182801  15 C  s         
     1      0.172634   1 H  s                26      0.172634   6 H  s         

 Vector   16  Occ=2.000000D+00  E=-7.145317D-01  Symmetry=a1g
              MO Center= -4.2D-17, -1.2D-16, -1.2D-16, r^2= 4.3D+00
   Bfn.  Coefficient  Atom+Function         Bfn.  Coefficient  Atom+Function  
  ----- ------------  ---------------      ----- ------------  ---------------
     1      0.127891   1 H  s                 6      0.127891   2 H  s         
    11      0.127891   3 H  s                16      0.127891   4 H  s         
    21      0.127891   5 H  s                26      0.127891   6 H  s         
    31      0.127891   7 H  s                36      0.127891   8 H  s         

 Vector   17  Occ=2.000000D+00  E=-6.353201D-01  Symmetry=a2u
              MO Center=  2.4D-16, -2.0D-16, -3.0D-16, r^2= 5.1D+00
   Bfn.  Coefficient  Atom+Function         Bfn.  Coefficient  Atom+Function  
  ----- ------------  ---------------      ----- ------------  ---------------
    43      0.624504   9 C  s                57      0.624504  10 C  s         
    71      0.624504  11 C  s                85      0.624504  12 C  s         
    99     -0.624504  13 C  s               113     -0.624504  14 C  s         
   127     -0.624504  15 C  s               141     -0.624504  16 C  s         
     1      0.162764   1 H  s                 6      0.162764   2 H  s         

 Vector   18  Occ=2.000000D+00  E=-5.897797D-01  Symmetry=eg
              MO Center=  1.8D-15,  5.9D-17,  1.7D-16, r^2= 2.6D+00
   Bfn.  Coefficient  Atom+Function         Bfn.  Coefficient  Atom+Function  
  ----- ------------  ---------------      ----- ------------  ---------------
    45      0.158088   9 C  py               59     -0.158088  10 C  py        
    73      0.158088  11 C  py               87     -0.158088  12 C  py        
   101      0.158088  13 C  py              115     -0.158088  14 C  py        
   129     -0.158088  15 C  py              143      0.158088  16 C  py        

 Vector   19  Occ=2.000000D+00  E=-5.897797D-01  Symmetry=eg
              MO Center=  7.3D-18, -6.3D-17,  4.6D-17, r^2= 2.6D+00
   Bfn.  Coefficient  Atom+Function         Bfn.  Coefficient  Atom+Function  
  ----- ------------  ---------------      ----- ------------  ---------------
    46      0.170743   9 C  pz               60      0.170743  10 C  pz        
    74     -0.170743  11 C  pz               88     -0.170743  12 C  pz        
   102     -0.170743  13 C  pz              116     -0.170743  14 C  pz        
   130      0.170743  15 C  pz              144      0.170743  16 C  pz        

 Vector   20  Occ=2.000000D+00  E=-5.859521D-01  Symmetry=t1u
              MO Center=  5.6D-16, -4.9D-17, -6.2D-16, r^2= 4.2D+00
   Bfn.  Coefficient  Atom+Function         Bfn.  Coefficient  Atom+Function  
  ----- ------------  ---------------      ----- ------------  ---------------
    16      0.193894   4 H  s                36     -0.193894   8 H  s         
    86      0.157916  12 C  px              142      0.157916  16 C  px        
     1     -0.151959   1 H  s                26      0.151959   6 H  s         

 Vector   21  Occ=2.000000D+00  E=-5.859521D-01  Symmetry=t1u
              MO Center= -1.9D-16, -3.1D-16,  6.2D-17, r^2= 4.2D+00
   Bfn.  Coefficient  Atom+Function         Bfn.  Coefficient  Atom+Function  
  ----- ------------  ---------------      ----- ------------  ---------------
     6      0.216206   2 H  s                21     -0.216206   5 H  s         
    58     -0.162163  10 C  px               59     -0.161998  10 C  py        
   100     -0.162163  13 C  px              101     -0.161998  13 C  py        

 Vector   22  Occ=2.000000D+00  E=-5.859521D-01  Symmetry=t1u
              MO Center= -2.1D-15,  1.7D-16, -3.7D-16, r^2= 4.2D+00
   Bfn.  Coefficient  Atom+Function         Bfn.  Coefficient  Atom+Function  
  ----- ------------  ---------------      ----- ------------  ---------------
     1      0.183561   1 H  s                26     -0.183561   6 H  s         
    11     -0.176614   3 H  s                31      0.176614   7 H  s         
    45      0.158932   9 C  py              115      0.158932  14 C  py        
    73     -0.156841  11 C  py              129     -0.156841  15 C  py        

 Vector   23  Occ=2.000000D+00  E=-3.986532D-01  Symmetry=t2u
              MO Center=  1.2D-16,  1.4D-17, -5.6D-17, r^2= 2.8D+00
   Bfn.  Coefficient  Atom+Function         Bfn.  Coefficient  Atom+Function  
  ----- ------------  ---------------      ----- ------------  ---------------
    74      0.218353  11 C  pz               88     -0.218353  12 C  pz        
   130      0.218353  15 C  pz              144     -0.218353  16 C  pz        
    45     -0.174781   9 C  py               73      0.174781  11 C  py        
   115     -0.174781  14 C  py              129      0.174781  15 C  py        

 Vector   24  Occ=2.000000D+00  E=-3.986532D-01  Symmetry=t2u
              MO Center= -6.9D-17, -4.2D-16, -6.2D-16, r^2= 2.8D+00
   Bfn.  Coefficient  Atom+Function         Bfn.  Coefficient  Atom+Function  
  ----- ------------  ---------------      ----- ------------  ---------------
    44      0.201584   9 C  px               86     -0.201584  12 C  px        
   114      0.201584  14 C  px              142     -0.201584  16 C  px        
    46     -0.199840   9 C  pz               60      0.199840  10 C  pz        
   102      0.199840  13 C  pz              116     -0.199840  14 C  pz        
    59      0.157823  10 C  py               87     -0.157823  12 C  py        

 Vector   25  Occ=2.000000D+00  E=-3.986532D-01  Symmetry=t2u
              MO Center= -4.2D-17, -3.5D-17,  6.9D-18, r^2= 2.8D+00
   Bfn.  Coefficient  Atom+Function         Bfn.  Coefficient  Atom+Function  
  ----- ------------  ---------------      ----- ------------  ---------------
    58      0.225650  10 C  px               72     -0.225650  11 C  px        
   100      0.225650  13 C  px              128     -0.225650  15 C  px        
    45      0.155018   9 C  py               73     -0.155018  11 C  py        
   115      0.155018  14 C  py              129     -0.155018  15 C  py        

 Vector   26  Occ=2.000000D+00  E=-3.885727D-01  Symmetry=t2g
              MO Center=  1.1D-15, -1.9D-17, -5.8D-15, r^2= 3.5D+00
   Bfn.  Coefficient  Atom+Function         Bfn.  Coefficient  Atom+Function  
  ----- ------------  ---------------      ----- ------------  ---------------
    46      0.213096   9 C  pz              116     -0.213096  14 C  pz        
    74      0.210955  11 C  pz               88      0.211947  12 C  pz        
   130     -0.210955  15 C  pz              144     -0.211947  16 C  pz        
    60      0.209806  10 C  pz              102     -0.209806  13 C  pz        
    43     -0.189683   9 C  s               113     -0.189683  14 C  s         

 Vector   27  Occ=2.000000D+00  E=-3.885727D-01  Symmetry=t2g
              MO Center=  1.8D-16, -7.0D-17, -1.4D-16, r^2= 3.5D+00
   Bfn.  Coefficient  Atom+Function         Bfn.  Coefficient  Atom+Function  
  ----- ------------  ---------------      ----- ------------  ---------------
    71      0.240340  11 C  s               127      0.240340  15 C  s         
    85     -0.236742  12 C  s               141     -0.236742  16 C  s         
    72      0.181433  11 C  px               86      0.181125  12 C  px        
   128     -0.181433  15 C  px              142     -0.181125  16 C  px        
    11     -0.166521   3 H  s                31     -0.166521   7 H  s         

 Vector   28  Occ=2.000000D+00  E=-3.885727D-01  Symmetry=t2g
              MO Center=  5.6D-15,  5.8D-15, -4.7D-16, r^2= 3.5D+00
   Bfn.  Coefficient  Atom+Function         Bfn.  Coefficient  Atom+Function  
  ----- ------------  ---------------      ----- ------------  ---------------
    57      0.251867  10 C  s                99      0.251867  13 C  s         
    43     -0.223689   9 C  s               113     -0.223689  14 C  s         
    59      0.181782  10 C  py              101     -0.181782  13 C  py        
    45      0.179371   9 C  py              115     -0.179371  14 C  py        
     6     -0.174508   2 H  s                21     -0.174508   5 H  s         

 Vector   29  Occ=0.000000D+00  E= 1.831326D-01  Symmetry=a1g
              MO Center=  6.6D-16, -7.8D-16,  2.4D-16, r^2= 1.0D+01
   Bfn.  Coefficient  Atom+Function         Bfn.  Coefficient  Atom+Function  
  ----- ------------  ---------------      ----- ------------  ---------------
     2      0.736300   1 H  s                 7      0.736300   2 H  s         
    12      0.736300   3 H  s                17      0.736300   4 H  s         
    22      0.736300   5 H  s                27      0.736300   6 H  s         
    32      0.736300   7 H  s                37      0.736300   8 H  s         
    43     -0.524039   9 C  s                57     -0.524039  10 C  s         

 Vector   30  Occ=0.000000D+00  E= 2.124946D-01  Symmetry=t1u
              MO Center= -1.6D-14,  1.4D-14,  1.1D-14, r^2= 7.5D+00
   Bfn.  Coefficient  Atom+Function         Bfn.  Coefficient  Atom+Function  
  ----- ------------  ---------------      ----- ------------  ---------------
    85      1.461091  12 C  s               141     -1.461091  16 C  s         
    57     -1.027533  10 C  s                99      1.027533  13 C  s         
    17     -0.864396   4 H  s                37      0.864396   8 H  s         
     7      0.607899   2 H  s                22     -0.607899   5 H  s         
    43     -0.601970   9 C  s               113      0.601970  14 C  s         

 Vector   31  Occ=0.000000D+00  E= 2.124946D-01  Symmetry=t1u
              MO Center= -1.2D-15,  2.6D-16,  7.5D-16, r^2= 7.5D+00
   Bfn.  Coefficient  Atom+Function         Bfn.  Coefficient  Atom+Function  
  ----- ------------  ---------------      ----- ------------  ---------------
    43      1.512780   9 C  s               113     -1.512780  14 C  s         
    57     -1.084265  10 C  s                99      1.084265  13 C  s         
     2     -0.894976   1 H  s                27      0.894976   6 H  s         
     7      0.641462   2 H  s                22     -0.641462   5 H  s         
    89     -0.408198  12 C  px              145     -0.408198  16 C  px        

 Vector   32  Occ=0.000000D+00  E= 2.124946D-01  Symmetry=t1u
              MO Center=  1.3D-14, -1.4D-14,  2.5D-14, r^2= 7.5D+00
   Bfn.  Coefficient  Atom+Function         Bfn.  Coefficient  Atom+Function  
  ----- ------------  ---------------      ----- ------------  ---------------
    71      1.597108  11 C  s               127     -1.597108  15 C  s         
    12     -0.944865   3 H  s                32      0.944865   7 H  s         
    85     -0.735460  12 C  s               141      0.735460  16 C  s         
    57     -0.674205  10 C  s                99      0.674205  13 C  s         
    17      0.435106   4 H  s                37     -0.435106   8 H  s         

 Vector   33  Occ=0.000000D+00  E= 2.575661D-01  Symmetry=t1u
              MO Center= -1.0D-15, -3.0D-15, -4.0D-16, r^2= 8.1D+00
   Bfn.  Coefficient  Atom+Function         Bfn.  Coefficient  Atom+Function  
  ----- ------------  ---------------      ----- ------------  ---------------
     2      1.160431   1 H  s                27     -1.160431   6 H  s         
    49     -0.648552   9 C  pz              119     -0.648552  14 C  pz        
    12     -0.571479   3 H  s                17     -0.573415   4 H  s         
    32      0.571479   7 H  s                37      0.573415   8 H  s         
    77     -0.502800  11 C  pz               91     -0.503279  12 C  pz        

 Vector   34  Occ=0.000000D+00  E= 2.575661D-01  Symmetry=t1u
              MO Center= -9.9D-16, -8.9D-16,  2.3D-15, r^2= 8.1D+00
   Bfn.  Coefficient  Atom+Function         Bfn.  Coefficient  Atom+Function  
  ----- ------------  ---------------      ----- ------------  ---------------
     7      0.995951   2 H  s                22     -0.995951   5 H  s         
    17     -0.920486   4 H  s                37      0.920486   8 H  s         
    61      0.638250  10 C  px              103      0.638250  13 C  px        
    89      0.619574  12 C  px              145      0.619574  16 C  px        
    47      0.471147   9 C  px              117      0.471147  14 C  px        

 Vector   35  Occ=0.000000D+00  E= 2.575661D-01  Symmetry=t1u
              MO Center= -8.3D-17, -2.0D-15,  1.3D-15, r^2= 8.1D+00
   Bfn.  Coefficient  Atom+Function         Bfn.  Coefficient  Atom+Function  
  ----- ------------  ---------------      ----- ------------  ---------------
    12      1.055904   3 H  s                32     -1.055904   7 H  s         
     7     -0.713804   2 H  s                22      0.713804   5 H  s         
    76     -0.666716  11 C  py              132     -0.666716  15 C  py        
    62     -0.582055  10 C  py              104     -0.582055  13 C  py        
    17     -0.570593   4 H  s                37      0.570593   8 H  s         

 Vector   36  Occ=0.000000D+00  E= 2.584296D-01  Symmetry=t2g
              MO Center= -5.2D-15, -1.2D-15, -6.1D-16, r^2= 1.2D+01
   Bfn.  Coefficient  Atom+Function         Bfn.  Coefficient  Atom+Function  
  ----- ------------  ---------------      ----- ------------  ---------------
     7      1.185881   2 H  s                22      1.185881   5 H  s         
    12     -1.153042   3 H  s                32     -1.153042   7 H  s         
    17     -0.828310   4 H  s                37     -0.828310   8 H  s         
     2      0.795472   1 H  s                27      0.795472   6 H  s         
    57     -0.660338  10 C  s                99     -0.660338  13 C  s         

 Vector   37  Occ=0.000000D+00  E= 2.584296D-01  Symmetry=t2g
              MO Center= -1.5D-16,  3.9D-16, -4.2D-15, r^2= 1.2D+01
   Bfn.  Coefficient  Atom+Function         Bfn.  Coefficient  Atom+Function  
  ----- ------------  ---------------      ----- ------------  ---------------
     2      1.530216   1 H  s                27      1.530216   6 H  s         
     7     -1.278555   2 H  s                22     -1.278555   5 H  s         
    43     -0.852075   9 C  s               113     -0.852075  14 C  s         
    57      0.711942  10 C  s                99      0.711942  13 C  s         
    47     -0.623542   9 C  px              117      0.623542  14 C  px        

 Vector   38  Occ=0.000000D+00  E= 2.584296D-01  Symmetry=t2g
              MO Center=  1.4D-14, -9.7D-15, -2.7D-14, r^2= 1.2D+01
   Bfn.  Coefficient  Atom+Function         Bfn.  Coefficient  Atom+Function  
  ----- ------------  ---------------      ----- ------------  ---------------
    17      1.534336   4 H  s                37      1.534336   8 H  s         
    12     -1.278208   3 H  s                32     -1.278208   7 H  s         
    85     -0.854369  12 C  s               141     -0.854369  16 C  s         
    71      0.711749  11 C  s               127      0.711749  15 C  s         
    90      0.622747  12 C  py              146     -0.622747  16 C  py        

 Vector   39  Occ=0.000000D+00  E= 2.728942D-01  Symmetry=a2u
              MO Center= -4.9D-15, -5.0D-14,  1.1D-14, r^2= 1.3D+01
   Bfn.  Coefficient  Atom+Function         Bfn.  Coefficient  Atom+Function  
  ----- ------------  ---------------      ----- ------------  ---------------
    43      6.898516   9 C  s                57      6.898516  10 C  s         
    71      6.898516  11 C  s                85      6.898516  12 C  s         
    99     -6.898516  13 C  s               113     -6.898516  14 C  s         
   127     -6.898516  15 C  s               141     -6.898516  16 C  s         
    47     -2.017843   9 C  px               48     -2.017843   9 C  py        

 Vector   40  Occ=0.000000D+00  E= 3.732156D-01  Symmetry=t1g
              MO Center=  6.1D-16, -3.3D-16,  1.0D-15, r^2= 4.4D+00
   Bfn.  Coefficient  Atom+Function         Bfn.  Coefficient  Atom+Function  
  ----- ------------  ---------------      ----- ------------  ---------------
    77      0.804356  11 C  pz               91     -0.804356  12 C  pz        
   133     -0.804356  15 C  pz              147      0.804356  16 C  pz        
    48     -0.608473   9 C  py               76      0.608473  11 C  py        
   118      0.608473  14 C  py              132     -0.608473  15 C  py        
    47      0.417446   9 C  px               89     -0.417446  12 C  px        

 Vector   41  Occ=0.000000D+00  E= 3.732156D-01  Symmetry=t1g
              MO Center=  4.7D-16,  2.4D-15,  2.2D-15, r^2= 4.4D+00
   Bfn.  Coefficient  Atom+Function         Bfn.  Coefficient  Atom+Function  
  ----- ------------  ---------------      ----- ------------  ---------------
    49      0.810044   9 C  pz               63     -0.810044  10 C  pz        
   105      0.810044  13 C  pz              119     -0.810044  14 C  pz        
    47     -0.599389   9 C  px               89      0.599389  12 C  px        
   117      0.599389  14 C  px              145     -0.599389  16 C  px        
    62     -0.438375  10 C  py               90      0.438375  12 C  py        

 Vector   42  Occ=0.000000D+00  E= 3.732156D-01  Symmetry=t1g
              MO Center=  1.7D-16,  1.1D-15, -1.7D-16, r^2= 4.4D+00
   Bfn.  Coefficient  Atom+Function         Bfn.  Coefficient  Atom+Function  
  ----- ------------  ---------------      ----- ------------  ---------------
    61      0.729052  10 C  px               75     -0.729052  11 C  px        
   103     -0.729052  13 C  px              131      0.729052  15 C  px        
    62     -0.605106  10 C  py               90      0.605106  12 C  py        
   104      0.605106  13 C  py              146     -0.605106  16 C  py        
    48      0.541673   9 C  py               76     -0.541673  11 C  py        

 Vector   43  Occ=0.000000D+00  E= 4.680340D-01  Symmetry=t2g
              MO Center=  1.4D-14,  1.3D-14, -3.0D-14, r^2= 6.0D+00
   Bfn.  Coefficient  Atom+Function         Bfn.  Coefficient  Atom+Function  
  ----- ------------  ---------------      ----- ------------  ---------------
    57      4.683081  10 C  s                99      4.683081  13 C  s         
    85     -4.084952  12 C  s               141     -4.084952  16 C  s         
    71     -3.376717  11 C  s               127     -3.376717  15 C  s         
    43      2.778587   9 C  s               113      2.778587  14 C  s         
    62      1.859392  10 C  py               90     -1.850519  12 C  py        

 Vector   44  Occ=0.000000D+00  E= 4.680340D-01  Symmetry=t2g
              MO Center=  1.3D-13,  2.1D-14,  1.6D-15, r^2= 6.0D+00
   Bfn.  Coefficient  Atom+Function         Bfn.  Coefficient  Atom+Function  
  ----- ------------  ---------------      ----- ------------  ---------------
    43      5.546801   9 C  s               113      5.546801  14 C  s         
    57     -4.112389  10 C  s                99     -4.112389  13 C  s         
    71     -2.842450  11 C  s               127     -2.842450  15 C  s         
    49     -2.054128   9 C  pz              119      2.054128  14 C  pz        
    63      2.032848  10 C  pz              105     -2.032848  13 C  pz        

 Vector   45  Occ=0.000000D+00  E= 4.680340D-01  Symmetry=t2g
              MO Center= -6.4D-14,  6.3D-14,  9.8D-15, r^2= 6.0D+00
   Bfn.  Coefficient  Atom+Function         Bfn.  Coefficient  Atom+Function  
  ----- ------------  ---------------      ----- ------------  ---------------
    85     -4.963490  12 C  s               141     -4.963490  16 C  s         
    71      4.880973  11 C  s               127      4.880973  15 C  s         
    43      2.195013   9 C  s               113      2.195013  14 C  s         
    57     -2.112496  10 C  s                99     -2.112496  13 C  s         
    77      2.082072  11 C  pz               91     -2.083296  12 C  pz        

 Vector   46  Occ=0.000000D+00  E= 5.040601D-01  Symmetry=a1g
              MO Center= -2.0D-15,  5.3D-16,  4.6D-15, r^2= 5.8D+00
   Bfn.  Coefficient  Atom+Function         Bfn.  Coefficient  Atom+Function  
  ----- ------------  ---------------      ----- ------------  ---------------
     1      0.346368   1 H  s                 6      0.346368   2 H  s         
    11      0.346368   3 H  s                16      0.346368   4 H  s         
    21      0.346368   5 H  s                26      0.346368   6 H  s         
    31      0.346368   7 H  s                36      0.346368   8 H  s         
    43     -0.275838   9 C  s                57     -0.275838  10 C  s         


 center of mass
 --------------
 x =   0.00000000 y =   0.00000000 z =   0.00000000

 moments of inertia (a.u.)
 ------------------
         530.346384489087           0.000000000000           0.000000000000
           0.000000000000         530.346384489087           0.000000000000
           0.000000000000           0.000000000000         530.346384489087

  Mulliken analysis of the total density
  --------------------------------------

    Atom       Charge   Shell Charges
 -----------   ------   -------------------------------------------------------
    1 H    1     0.98   0.76  0.19  0.02
    2 H    1     0.98   0.76  0.19  0.02
    3 H    1     0.98   0.76  0.19  0.02
    4 H    1     0.98   0.76  0.19  0.02
    5 H    1     0.98   0.76  0.19  0.02
    6 H    1     0.98   0.76  0.19  0.02
    7 H    1     0.98   0.76  0.19  0.02
    8 H    1     0.98   0.76  0.19  0.02
    9 C    6     6.02   1.99  0.83  0.62  2.02  0.51  0.05
   10 C    6     6.02   1.99  0.83  0.62  2.02  0.51  0.05
   11 C    6     6.02   1.99  0.83  0.62  2.02  0.51  0.05
   12 C    6     6.02   1.99  0.83  0.62  2.02  0.51  0.05
   13 C    6     6.02   1.99  0.83  0.62  2.02  0.51  0.05
   14 C    6     6.02   1.99  0.83  0.62  2.02  0.51  0.05
   15 C    6     6.02   1.99  0.83  0.62  2.02  0.51  0.05
   16 C    6     6.02   1.99  0.83  0.62  2.02  0.51  0.05

       Multipole analysis of the density wrt the origin
       ------------------------------------------------

     L   x y z        total         open         nuclear
     -   - - -        -----         ----         -------
     0   0 0 0     -0.000000      0.000000     56.000000

     1   1 0 0     -0.000000      0.000000      0.000000
     1   0 1 0     -0.000000      0.000000      0.000000
     1   0 0 1      0.000000      0.000000      0.000000

     2   2 0 0    -35.207950      0.000000    160.662401
     2   1 1 0      0.000000      0.000000      0.000000
     2   1 0 1     -0.000000      0.000000      0.000000
     2   0 2 0    -35.207950      0.000000    160.662401
     2   0 1 1      0.000000      0.000000      0.000000
     2   0 0 2    -35.207950      0.000000    160.662401


------------------------------------------------------------
EAF file 0: "./cubane.aoints.0" size=5242880 bytes
------------------------------------------------------------
               write      read    awrite     aread      wait
               -----      ----    ------     -----      ----
     calls:       10         1         0         9         9
   data(b): 5.24e+06  5.24e+05  0.00e+00  4.72e+06
   time(s): 0.00e+00  0.00e+00  0.00e+00  0.00e+00  0.00e+00
rate(mb/s): 0.00e+00  0.00e+00
------------------------------------------------------------


 Parallel integral file used      51 records with       0 large values

                              NWChem Gradients Module
                              -----------------------


                     cubane HF/def2-SVP geometry optimization


  wavefunction    =   RHF     

  Using symmetry


                         RHF ENERGY GRADIENTS

    atom               coordinates                        gradient
                 x          y          z           x          y          z
   1 H       2.659757   2.659757   2.659757    0.000066   0.000066   0.000066
   2 H      -2.659757  -2.659757   2.659757   -0.000066  -0.000066   0.000066
   3 H      -2.659757   2.659757  -2.659757   -0.000066   0.000066  -0.000066
   4 H       2.659757  -2.659757  -2.659757    0.000066  -0.000066  -0.000066
   5 H       2.659757   2.659757  -2.659757    0.000066   0.000066  -0.000066
   6 H      -2.659757  -2.659757  -2.659757   -0.000066  -0.000066  -0.000066
   7 H       2.659757  -2.659757   2.659757    0.000066  -0.000066   0.000066
   8 H      -2.659757   2.659757   2.659757   -0.000066   0.000066   0.000066
   9 C       1.472441   1.472441   1.472441   -0.000363  -0.000363  -0.000363
  10 C      -1.472441  -1.472441   1.472441    0.000363   0.000363  -0.000363
  11 C      -1.472441   1.472441  -1.472441    0.000363  -0.000363   0.000363
  12 C       1.472441  -1.472441  -1.472441   -0.000363   0.000363   0.000363
  13 C       1.472441   1.472441  -1.472441   -0.000363  -0.000363   0.000363
  14 C      -1.472441  -1.472441  -1.472441    0.000363   0.000363   0.000363
  15 C       1.472441  -1.472441   1.472441   -0.000363   0.000363  -0.000363
  16 C      -1.472441   1.472441   1.472441    0.000363  -0.000363  -0.000363

                 ----------------------------------------
                 |  Time  |  1-e(secs)   |  2-e(secs)   |
                 ----------------------------------------
                 |  CPU   |       0.02   |       2.29   |
                 ----------------------------------------
                 |  WALL  |       0.03   |       3.15   |
                 ----------------------------------------

@ Step       Energy      Delta E   Gmax     Grms     Xrms     Xmax   Walltime
@ ---- ---------------- -------- -------- -------- -------- -------- --------
@    0    -307.16662394  0.0D+00  0.00030  0.00008  0.00000  0.00000     20.2
                                     ok       ok       ok       ok  



                                Z-matrix (autoz)
                                -------- 

 Units are Angstrom for bonds and degrees for angles

      Type          Name      I     J     K     L     M      Value     Gradient
      ----------- --------  ----- ----- ----- ----- ----- ---------- ----------
    1 Stretch                  1     9                       1.08825    0.00011
    2 Stretch                  2    10                       1.08825    0.00011
    3 Stretch                  3    11                       1.08825    0.00011
    4 Stretch                  4    12                       1.08825    0.00011
    5 Stretch                  5    13                       1.08825    0.00011
    6 Stretch                  6    14                       1.08825    0.00011
    7 Stretch                  7    15                       1.08825    0.00011
    8 Stretch                  8    16                       1.08825    0.00011
    9 Stretch                  9    13                       1.55836   -0.00030
   10 Stretch                  9    15                       1.55836   -0.00030
   11 Stretch                  9    16                       1.55836   -0.00030
   12 Stretch                 10    14                       1.55836   -0.00030
   13 Stretch                 10    15                       1.55836   -0.00030
   14 Stretch                 10    16                       1.55836   -0.00030
   15 Stretch                 11    13                       1.55836   -0.00030
   16 Stretch                 11    14                       1.55836   -0.00030
   17 Stretch                 11    16                       1.55836   -0.00030
   18 Stretch                 12    13                       1.55836   -0.00030
   19 Stretch                 12    14                       1.55836   -0.00030
   20 Stretch                 12    15                       1.55836   -0.00030
   21 Bend                     1     9    13               125.26439    0.00000
   22 Bend                     1     9    15               125.26439   -0.00000
   23 Bend                     1     9    16               125.26439    0.00000
   24 Bend                     2    10    14               125.26439    0.00000
   25 Bend                     2    10    15               125.26439   -0.00000
   26 Bend                     2    10    16               125.26439    0.00000
   27 Bend                     3    11    13               125.26439    0.00000
   28 Bend                     3    11    14               125.26439   -0.00000
   29 Bend                     3    11    16               125.26439   -0.00000
   30 Bend                     4    12    13               125.26439    0.00000
   31 Bend                     4    12    14               125.26439   -0.00000
   32 Bend                     4    12    15               125.26439    0.00000
   33 Bend                     5    13     9               125.26439   -0.00000
   34 Bend                     5    13    11               125.26439   -0.00000
   35 Bend                     5    13    12               125.26439    0.00000
   36 Bend                     6    14    10               125.26439    0.00000
   37 Bend                     6    14    11               125.26439   -0.00000
   38 Bend                     6    14    12               125.26439   -0.00000
   39 Bend                     7    15     9               125.26439   -0.00000
   40 Bend                     7    15    10               125.26439   -0.00000
   41 Bend                     7    15    12               125.26439    0.00000
   42 Bend                     8    16     9               125.26439   -0.00000
   43 Bend                     8    16    10               125.26439   -0.00000
   44 Bend                     8    16    11               125.26439   -0.00000
   45 Bend                     9    13    11                90.00000    0.00000
   46 Bend                     9    13    12                90.00000    0.00000
   47 Bend                     9    15    10                90.00000   -0.00000
   48 Bend                     9    15    12                90.00000   -0.00000
   49 Bend                     9    16    10                90.00000   -0.00000
   50 Bend                     9    16    11                90.00000    0.00000
   51 Bend                    10    14    11                90.00000   -0.00000
   52 Bend                    10    14    12                90.00000   -0.00000
   53 Bend                    10    15    12                90.00000   -0.00000
   54 Bend                    10    16    11                90.00000    0.00000
   55 Bend                    11    13    12                90.00000   -0.00000
   56 Bend                    11    14    12                90.00000    0.00000
   57 Bend                    13     9    15                90.00000    0.00000
   58 Bend                    13     9    16                90.00000   -0.00000
   59 Bend                    13    11    14                90.00000   -0.00000
   60 Bend                    13    11    16                90.00000   -0.00000
   61 Bend                    13    12    14                90.00000   -0.00000
   62 Bend                    13    12    15                90.00000   -0.00000
   63 Bend                    14    10    15                90.00000    0.00000
   64 Bend                    14    10    16                90.00000   -0.00000
   65 Bend                    14    11    16                90.00000    0.00000
   66 Bend                    14    12    15                90.00000    0.00000
   67 Bend                    15     9    16                90.00000   -0.00000
   68 Bend                    15    10    16                90.00000    0.00000
   69 Torsion                  1     9    13     5           0.00000   -0.00000
   70 Torsion                  1     9    13    11        -135.00000   -0.00000
   71 Torsion                  1     9    13    12         135.00000    0.00000
   72 Torsion                  1     9    15     7           0.00000    0.00000
   73 Torsion                  1     9    15    10         135.00000   -0.00000
   74 Torsion                  1     9    15    12        -135.00000   -0.00000
   75 Torsion                  1     9    16     8           0.00000    0.00000
   76 Torsion                  1     9    16    10        -135.00000    0.00000
   77 Torsion                  1     9    16    11         135.00000    0.00000
   78 Torsion                  2    10    14     6           0.00000   -0.00000
   79 Torsion                  2    10    14    11         135.00000   -0.00000
   80 Torsion                  2    10    14    12        -135.00000    0.00000
   81 Torsion                  2    10    15     7           0.00000    0.00000
   82 Torsion                  2    10    15     9        -135.00000    0.00000
   83 Torsion                  2    10    15    12         135.00000    0.00000
   84 Torsion                  2    10    16     8           0.00000   -0.00000
   85 Torsion                  2    10    16     9         135.00000   -0.00000
   86 Torsion                  2    10    16    11        -135.00000    0.00000
   87 Torsion                  3    11    13     5           0.00000    0.00000
   88 Torsion                  3    11    13     9         135.00000   -0.00000
   89 Torsion                  3    11    13    12        -135.00000   -0.00000
   90 Torsion                  3    11    14     6           0.00000    0.00000
   91 Torsion                  3    11    14    10        -135.00000    0.00000
   92 Torsion                  3    11    14    12         135.00000    0.00000
   93 Torsion                  3    11    16     8           0.00000   -0.00000
   94 Torsion                  3    11    16     9        -135.00000   -0.00000
   95 Torsion                  3    11    16    10         135.00000   -0.00000
   96 Torsion                  4    12    13     5           0.00000   -0.00000
   97 Torsion                  4    12    13     9        -135.00000   -0.00000
   98 Torsion                  4    12    13    11         135.00000   -0.00000
   99 Torsion                  4    12    14     6           0.00000   -0.00000
  100 Torsion                  4    12    14    10         135.00000    0.00000
  101 Torsion                  4    12    14    11        -135.00000   -0.00000
  102 Torsion                  4    12    15     7           0.00000    0.00000
  103 Torsion                  4    12    15     9         135.00000    0.00000
  104 Torsion                  4    12    15    10        -135.00000    0.00000
  105 Torsion                  5    13     9    15        -135.00000   -0.00000
  106 Torsion                  5    13     9    16         135.00000   -0.00000
  107 Torsion                  5    13    11    14         135.00000   -0.00000
  108 Torsion                  5    13    11    16        -135.00000    0.00000
  109 Torsion                  5    13    12    14        -135.00000    0.00000
  110 Torsion                  5    13    12    15         135.00000   -0.00000
  111 Torsion                  6    14    10    15         135.00000   -0.00000
  112 Torsion                  6    14    10    16        -135.00000    0.00000
  113 Torsion                  6    14    11    13        -135.00000    0.00000
  114 Torsion                  6    14    11    16         135.00000    0.00000
  115 Torsion                  6    14    12    13         135.00000   -0.00000
  116 Torsion                  6    14    12    15        -135.00000   -0.00000
  117 Torsion                  7    15     9    13         135.00000    0.00000
  118 Torsion                  7    15     9    16        -135.00000   -0.00000
  119 Torsion                  7    15    10    14        -135.00000   -0.00000
  120 Torsion                  7    15    10    16         135.00000    0.00000
  121 Torsion                  7    15    12    13        -135.00000   -0.00000
  122 Torsion                  7    15    12    14         135.00000   -0.00000
  123 Torsion                  8    16     9    13        -135.00000    0.00000
  124 Torsion                  8    16     9    15         135.00000   -0.00000
  125 Torsion                  8    16    10    14         135.00000   -0.00000
  126 Torsion                  8    16    10    15        -135.00000    0.00000
  127 Torsion                  8    16    11    13         135.00000   -0.00000
  128 Torsion                  8    16    11    14        -135.00000   -0.00000
  129 Torsion                  9    13    11    14         -90.00000   -0.00000
  130 Torsion                  9    13    11    16           0.00000    0.00000
  131 Torsion                  9    13    12    14          90.00000    0.00000
  132 Torsion                  9    13    12    15           0.00000   -0.00000
  133 Torsion                  9    15    10    14          90.00000   -0.00000
  134 Torsion                  9    15    10    16           0.00000    0.00000
  135 Torsion                  9    15    12    13           0.00000    0.00000
[...]
   53 Bend                    10    15    12                90.00000    0.00000
   54 Bend                    10    16    11                90.00000    0.00000
   55 Bend                    11    13    12                90.00000    0.00000
   56 Bend                    11    14    12                90.00000    0.00000
   57 Bend                    13     9    15                90.00000    0.00000
   58 Bend                    13     9    16                90.00000    0.00000
   59 Bend                    13    11    14                90.00000    0.00000
   60 Bend                    13    11    16                90.00000    0.00000
   61 Bend                    13    12    14                90.00000    0.00000
   62 Bend                    13    12    15                90.00000    0.00000
   63 Bend                    14    10    15                90.00000    0.00000
   64 Bend                    14    10    16                90.00000    0.00000
   65 Bend                    14    11    16                90.00000    0.00000
   66 Bend                    14    12    15                90.00000    0.00000
   67 Bend                    15     9    16                90.00000    0.00000
   68 Bend                    15    10    16                90.00000    0.00000
   69 Torsion                  1     9    13     5           0.00000    0.00000
   70 Torsion                  1     9    13    11        -135.00000    0.00000
   71 Torsion                  1     9    13    12         135.00000   -0.00000
   72 Torsion                  1     9    15     7           0.00000    0.00000
   73 Torsion                  1     9    15    10         135.00000   -0.00000
   74 Torsion                  1     9    15    12        -135.00000    0.00000
   75 Torsion                  1     9    16     8           0.00000    0.00000
   76 Torsion                  1     9    16    10        -135.00000    0.00000
   77 Torsion                  1     9    16    11         135.00000   -0.00000
   78 Torsion                  2    10    14     6           0.00000    0.00000
   79 Torsion                  2    10    14    11         135.00000   -0.00000
   80 Torsion                  2    10    14    12        -135.00000    0.00000
   81 Torsion                  2    10    15     7           0.00000    0.00000
   82 Torsion                  2    10    15     9        -135.00000    0.00000
   83 Torsion                  2    10    15    12         135.00000   -0.00000
   84 Torsion                  2    10    16     8           0.00000    0.00000
   85 Torsion                  2    10    16     9         135.00000   -0.00000
   86 Torsion                  2    10    16    11        -135.00000    0.00000
   87 Torsion                  3    11    13     5           0.00000    0.00000
   88 Torsion                  3    11    13     9         135.00000   -0.00000
   89 Torsion                  3    11    13    12        -135.00000    0.00000
   90 Torsion                  3    11    14     6           0.00000    0.00000
   91 Torsion                  3    11    14    10        -135.00000    0.00000
   92 Torsion                  3    11    14    12         135.00000   -0.00000
   93 Torsion                  3    11    16     8           0.00000    0.00000
   94 Torsion                  3    11    16     9        -135.00000    0.00000
   95 Torsion                  3    11    16    10         135.00000   -0.00000
   96 Torsion                  4    12    13     5           0.00000    0.00000
   97 Torsion                  4    12    13     9        -135.00000    0.00000
   98 Torsion                  4    12    13    11         135.00000   -0.00000
   99 Torsion                  4    12    14     6           0.00000    0.00000
  100 Torsion                  4    12    14    10         135.00000   -0.00000
  101 Torsion                  4    12    14    11        -135.00000    0.00000
  102 Torsion                  4    12    15     7           0.00000    0.00000
  103 Torsion                  4    12    15     9         135.00000   -0.00000
  104 Torsion                  4    12    15    10        -135.00000    0.00000
  105 Torsion                  5    13     9    15        -135.00000    0.00000
  106 Torsion                  5    13     9    16         135.00000   -0.00000
  107 Torsion                  5    13    11    14         135.00000   -0.00000
  108 Torsion                  5    13    11    16        -135.00000    0.00000
  109 Torsion                  5    13    12    14        -135.00000    0.00000
  110 Torsion                  5    13    12    15         135.00000   -0.00000
  111 Torsion                  6    14    10    15         135.00000   -0.00000
  112 Torsion                  6    14    10    16        -135.00000    0.00000
  113 Torsion                  6    14    11    13        -135.00000    0.00000
  114 Torsion                  6    14    11    16         135.00000   -0.00000
  115 Torsion                  6    14    12    13         135.00000   -0.00000
  116 Torsion                  6    14    12    15        -135.00000    0.00000
  117 Torsion                  7    15     9    13         135.00000   -0.00000
  118 Torsion                  7    15     9    16        -135.00000    0.00000
  119 Torsion                  7    15    10    14        -135.00000    0.00000
  120 Torsion                  7    15    10    16         135.00000   -0.00000
  121 Torsion                  7    15    12    13        -135.00000    0.00000
  122 Torsion                  7    15    12    14         135.00000   -0.00000
  123 Torsion                  8    16     9    13        -135.00000    0.00000
  124 Torsion                  8    16     9    15         135.00000   -0.00000
  125 Torsion                  8    16    10    14         135.00000   -0.00000
  126 Torsion                  8    16    10    15        -135.00000    0.00000
  127 Torsion                  8    16    11    13         135.00000   -0.00000
  128 Torsion                  8    16    11    14        -135.00000    0.00000
  129 Torsion                  9    13    11    14         -90.00000    0.00000
  130 Torsion                  9    13    11    16           0.00000    0.00000
  131 Torsion                  9    13    12    14          90.00000    0.00000
  132 Torsion                  9    13    12    15           0.00000    0.00000
  133 Torsion                  9    15    10    14          90.00000    0.00000
  134 Torsion                  9    15    10    16           0.00000    0.00000
  135 Torsion                  9    15    12    13           0.00000    0.00000
  136 Torsion                  9    15    12    14         -90.00000    0.00000
  137 Torsion                  9    16    10    14         -90.00000    0.00000
  138 Torsion                  9    16    10    15           0.00000    0.00000
  139 Torsion                  9    16    11    13           0.00000    0.00000
  140 Torsion                  9    16    11    14          90.00000    0.00000
  141 Torsion                 10    14    11    13          90.00000    0.00000
  142 Torsion                 10    14    11    16           0.00000    0.00000
  143 Torsion                 10    14    12    13         -90.00000    0.00000
  144 Torsion                 10    14    12    15           0.00000    0.00000
  145 Torsion                 10    15     9    13         -90.00000    0.00000
  146 Torsion                 10    15     9    16           0.00000    0.00000
  147 Torsion                 10    15    12    13          90.00000    0.00000
  148 Torsion                 10    15    12    14           0.00000    0.00000
  149 Torsion                 10    16     9    13          90.00000    0.00000
  150 Torsion                 10    16     9    15           0.00000    0.00000
  151 Torsion                 10    16    11    13         -90.00000    0.00000
  152 Torsion                 10    16    11    14           0.00000    0.00000
  153 Torsion                 11    13     9    15          90.00000    0.00000
  154 Torsion                 11    13     9    16           0.00000    0.00000
  155 Torsion                 11    13    12    14           0.00000    0.00000
  156 Torsion                 11    13    12    15         -90.00000    0.00000
  157 Torsion                 11    14    10    15         -90.00000    0.00000
  158 Torsion                 11    14    10    16           0.00000    0.00000
  159 Torsion                 11    14    12    13           0.00000    0.00000
  160 Torsion                 11    14    12    15          90.00000    0.00000
  161 Torsion                 11    16     9    13           0.00000    0.00000
  162 Torsion                 11    16     9    15         -90.00000    0.00000
  163 Torsion                 11    16    10    14           0.00000    0.00000
  164 Torsion                 11    16    10    15          90.00000    0.00000
  165 Torsion                 12    13     9    15           0.00000    0.00000
  166 Torsion                 12    13     9    16         -90.00000    0.00000
  167 Torsion                 12    13    11    14           0.00000    0.00000
  168 Torsion                 12    13    11    16          90.00000    0.00000
  169 Torsion                 12    14    10    15           0.00000    0.00000
  170 Torsion                 12    14    10    16          90.00000    0.00000
  171 Torsion                 12    14    11    13           0.00000    0.00000
  172 Torsion                 12    14    11    16         -90.00000    0.00000
  173 Torsion                 12    15     9    13           0.00000    0.00000
  174 Torsion                 12    15     9    16          90.00000    0.00000
  175 Torsion                 12    15    10    14           0.00000    0.00000
  176 Torsion                 12    15    10    16         -90.00000    0.00000

 ==============================================================================
                                internuclear distances
 ------------------------------------------------------------------------------
       center one      |      center two      | atomic units |  angstroms
 ------------------------------------------------------------------------------
    9 C                |   1 H                |     2.05610  |     1.08804
   10 C                |   2 H                |     2.05610  |     1.08804
   11 C                |   3 H                |     2.05610  |     1.08804
   12 C                |   4 H                |     2.05610  |     1.08804
   13 C                |   5 H                |     2.05610  |     1.08804
   13 C                |   9 C                |     2.94590  |     1.55890
   13 C                |  11 C                |     2.94590  |     1.55890
   13 C                |  12 C                |     2.94590  |     1.55890
   14 C                |   6 H                |     2.05610  |     1.08804
   14 C                |  10 C                |     2.94590  |     1.55890
   14 C                |  11 C                |     2.94590  |     1.55890
   14 C                |  12 C                |     2.94590  |     1.55890
   15 C                |   7 H                |     2.05610  |     1.08804
   15 C                |   9 C                |     2.94590  |     1.55890
   15 C                |  10 C                |     2.94590  |     1.55890
   15 C                |  12 C                |     2.94590  |     1.55890
   16 C                |   8 H                |     2.05610  |     1.08804
   16 C                |   9 C                |     2.94590  |     1.55890
   16 C                |  10 C                |     2.94590  |     1.55890
   16 C                |  11 C                |     2.94590  |     1.55890
 ------------------------------------------------------------------------------
                         number of included internuclear distances:         20
 ==============================================================================



 ==============================================================================
                                 internuclear angles
 ------------------------------------------------------------------------------
        center 1       |       center 2       |       center 3       |  degrees
 ------------------------------------------------------------------------------
    1 H                |   9 C                |  13 C                |   125.26
    1 H                |   9 C                |  15 C                |   125.26
    1 H                |   9 C                |  16 C                |   125.26
   13 C                |   9 C                |  15 C                |    90.00
   13 C                |   9 C                |  16 C                |    90.00
   15 C                |   9 C                |  16 C                |    90.00
    2 H                |  10 C                |  14 C                |   125.26
    2 H                |  10 C                |  15 C                |   125.26
    2 H                |  10 C                |  16 C                |   125.26
   14 C                |  10 C                |  15 C                |    90.00
   14 C                |  10 C                |  16 C                |    90.00
   15 C                |  10 C                |  16 C                |    90.00
    3 H                |  11 C                |  13 C                |   125.26
    3 H                |  11 C                |  14 C                |   125.26
    3 H                |  11 C                |  16 C                |   125.26
   13 C                |  11 C                |  14 C                |    90.00
   13 C                |  11 C                |  16 C                |    90.00
   14 C                |  11 C                |  16 C                |    90.00
    4 H                |  12 C                |  13 C                |   125.26
    4 H                |  12 C                |  14 C                |   125.26
    4 H                |  12 C                |  15 C                |   125.26
   13 C                |  12 C                |  14 C                |    90.00
   13 C                |  12 C                |  15 C                |    90.00
   14 C                |  12 C                |  15 C                |    90.00
    5 H                |  13 C                |   9 C                |   125.26
    5 H                |  13 C                |  11 C                |   125.26
    5 H                |  13 C                |  12 C                |   125.26
    9 C                |  13 C                |  11 C                |    90.00
    9 C                |  13 C                |  12 C                |    90.00
   11 C                |  13 C                |  12 C                |    90.00
    6 H                |  14 C                |  10 C                |   125.26
    6 H                |  14 C                |  11 C                |   125.26
    6 H                |  14 C                |  12 C                |   125.26
   10 C                |  14 C                |  11 C                |    90.00
   10 C                |  14 C                |  12 C                |    90.00
   11 C                |  14 C                |  12 C                |    90.00
    7 H                |  15 C                |   9 C                |   125.26
    7 H                |  15 C                |  10 C                |   125.26
    7 H                |  15 C                |  12 C                |   125.26
    9 C                |  15 C                |  10 C                |    90.00
    9 C                |  15 C                |  12 C                |    90.00
   10 C                |  15 C                |  12 C                |    90.00
    8 H                |  16 C                |   9 C                |   125.26
    8 H                |  16 C                |  10 C                |   125.26
    8 H                |  16 C                |  11 C                |   125.26
    9 C                |  16 C                |  10 C                |    90.00
    9 C                |  16 C                |  11 C                |    90.00
   10 C                |  16 C                |  11 C                |    90.00
 ------------------------------------------------------------------------------
                            number of included internuclear angles:         48
 ==============================================================================




 Task  times  cpu:       31.9s     wall:       48.9s


                                NWChem Input Module
                                -------------------


 Summary of allocated global arrays
-----------------------------------
  No active global arrays



                         GA Statistics for process    0
                         ------------------------------

       create   destroy   get      put      acc     scatter   gather  read&inc
calls:  748      748     7.65e+04 2.42e+04 3.45e+05    0        0     9722     
number of processes/call 1.30e+00 1.10e+00 1.00e+00 0.00e+00 0.00e+00
bytes total:             1.86e+08 6.52e+07 2.93e+08 0.00e+00 0.00e+00 7.78e+04
bytes remote:            4.40e+07 9.55e+06 1.35e+07 0.00e+00 0.00e+00 0.00e+00
Max memory consumed for GA by this process: 1860608 bytes

MA_summarize_allocated_blocks: starting scan ...
MA_summarize_allocated_blocks: scan completed: 0 heap blocks, 0 stack blocks
MA usage statistics:

	allocation statistics:
					      heap	     stack
					      ----	     -----
	current number of blocks	         0	         0
	maximum number of blocks	        20	        29
	current total bytes		         0	         0
	maximum total bytes		  15789856	  26098952
	maximum total K-bytes		     15790	     26099
	maximum total M-bytes		        16	        27


                                     CITATION
                                     --------
                Please cite the following reference when publishing
                           results obtained with NWChem:

                 M. Valiev, E.J. Bylaska, N. Govind, K. Kowalski,
              T.P. Straatsma, H.J.J. van Dam, D. Wang, J. Nieplocha,
                        E. Apra, T.L. Windus, W.A. de Jong
                 "NWChem: a comprehensive and scalable open-source
                  solution for large scale molecular simulations"
                      Comput. Phys. Commun. 181, 1477 (2010)
                           doi:10.1016/j.cpc.2010.04.018

                                      AUTHORS
                                      -------
          E. Apra, E. J. Bylaska, W. A. de Jong, N. Govind, K. Kowalski,
       T. P. Straatsma, M. Valiev, H. J. J. van Dam, D. Wang, T. L. Windus,
        J. Hammond, J. Autschbach, K. Bhaskaran-Nair, J. Brabec, K. Lopata,
        S. Krishnamoorthy, W. Ma, M. Klemm, O. Villa, Y. Chen, V. Anisimov,
    F. Aquino, S. Hirata, M. T. Hackler, T. Risthaus, M. Malagoli, A. Marenich,
   A. Otero-de-la-Roza, J. Mullin, P. Nichols, R. Peverati, J. Pittner, Y. Zhao,
         P.-D. Fan, A. Fonari, R. J. Harrison, M. Dupuis, D. Silverstein,
    D. M. A. Smith, J. Nieplocha, V. Tipparaju, M. Krishnan, B. E. Van Kuiken,
        A. Vazquez-Mayagoitia, L. Jensen, M. Swart, Q. Wu, T. Van Voorhis,
     A. A. Auer, M. Nooijen, L. D. Crosby, E. Brown, G. Cisneros, G. I. Fann,
   H. Fruchtl, J. Garza, K. Hirao, R. A. Kendall, J. A. Nichols, K. Tsemekhman,
    K. Wolinski, J. Anchell, D. E. Bernholdt, P. Borowski, T. Clark, D. Clerc,
   H. Dachsel, M. J. O. Deegan, K. Dyall, D. Elwood, E. Glendening, M. Gutowski,
   A. C. Hess, J. Jaffe, B. G. Johnson, J. Ju, R. Kobayashi, R. Kutteh, Z. Lin,
   R. Littlefield, X. Long, B. Meng, T. Nakajima, S. Niu, L. Pollack, M. Rosing,
   K. Glaesemann, G. Sandrone, M. Stave, H. Taylor, G. Thomas, J. H. van Lenthe,
                               A. T. Wong, Z. Zhang.

 Total times  cpu:       32.1s     wall:       49.3s
