 argument  1 = cubane
  Unable to open cubane --- appending .nw
                                         
                                         


             Northwest Computational Chemistry Package (NWChem) 6.1.1
             --------------------------------------------------------


                    Environmental Molecular Sciences Laboratory
                       Pacific Northwest National Laboratory
                                Richland, WA 99352

                              Copyright (c) 1994-2012
                       Pacific Northwest National Laboratory
                            Battelle Memorial Institute

             NWChem is an open-source computational chemistry package
                        distributed under the terms of the
                      Educational Community License (ECL) 2.0
             A copy of the license is included with this distribution
                              in the LICENSE.TXT file

                                  ACKNOWLEDGMENT
                                  --------------

            This software and its documentation were developed at the
            EMSL at Pacific Northwest National Laboratory, a multiprogram
            national laboratory, operated for the U.S. Department of Energy
            by Battelle under Contract Number DE-AC05-76RL01830. Support
            for this work was provided by the Department of Energy Office
            of Biological and Environmental Research, Office of Basic
            Energy Sciences, and the Office of Advanced Scientific Computing.


           Job information
           ---------------

    hostname      = kbob-G41MT-S2
    program       = nwchem
    date          = Tue Apr  2 20:59:39 2013

    compiled      = Вт._февр._12_22:37:34_2013
    source        = /opt/nwchem-6.1.1-src
    nwchem branch = 6.1.1
    input         = cubane.nw
    prefix        = cubane.
    data base     = ./cubane.db
    status        = startup
    nproc         =        2
    time left     =     -1s



           Memory information
           ------------------

    heap     =   63236801 doubles =    482.5 Mbytes
    stack    =   63236801 doubles =    482.5 Mbytes
    global   =  126473600 doubles =    964.9 Mbytes (distinct from heap & stack)
    total    =  252947202 doubles =   1929.8 Mbytes
    verify   = yes
    hardfail = no 


           Directory information
           ---------------------

  0 permanent = .
  0 scratch   = .




                                NWChem Input Module
                                -------------------


                    cubane def2-TZVPP DFT geometry optimization
                    -------------------------------------------

 Scaling coordinates for geometry "geometry" by  1.889725989
 (inverse scale =  0.529177249)

 Turning off AUTOSYM since
 SYMMETRY directive was detected!


          ------
          auto-z
          ------


                             Geometry "geometry" -> ""
                             -------------------------

 Output coordinates in angstroms (scale by  1.889725989 to convert to a.u.)

  No.       Tag          Charge          X              Y              Z
 ---- ---------------- ---------- -------------- -------------- --------------
    1 H                    1.0000     1.41150317     1.41150317     1.41150317
    2 H                    1.0000    -1.41150317    -1.41150317     1.41150317
    3 H                    1.0000    -1.41150317     1.41150317    -1.41150317
    4 H                    1.0000     1.41150317    -1.41150317    -1.41150317
    5 H                    1.0000     1.41150317     1.41150317    -1.41150317
    6 H                    1.0000    -1.41150317    -1.41150317    -1.41150317
    7 H                    1.0000     1.41150317    -1.41150317     1.41150317
    8 H                    1.0000    -1.41150317     1.41150317     1.41150317
    9 C                    6.0000     0.78367213     0.78367213     0.78367213
   10 C                    6.0000    -0.78367213    -0.78367213     0.78367213
   11 C                    6.0000    -0.78367213     0.78367213    -0.78367213
   12 C                    6.0000     0.78367213    -0.78367213    -0.78367213
   13 C                    6.0000     0.78367213     0.78367213    -0.78367213
   14 C                    6.0000    -0.78367213    -0.78367213    -0.78367213
   15 C                    6.0000     0.78367213    -0.78367213     0.78367213
   16 C                    6.0000    -0.78367213     0.78367213     0.78367213

      Atomic Mass 
      ----------- 

      H                  1.007825
      C                 12.000000


 Effective nuclear repulsion energy (a.u.)     367.6103666819

            Nuclear Dipole moment (a.u.) 
            ----------------------------
        X                 Y               Z
 ---------------- ---------------- ----------------
     0.0000000000     0.0000000000     0.0000000000

      Symmetry information
      --------------------

 Group name              Oh       
 Group number             44
 Group order              48
 No. of unique centers     2

      Symmetry unique atoms

     1    9



                                Z-matrix (autoz)
                                -------- 

 Units are Angstrom for bonds and degrees for angles

      Type          Name      I     J     K     L     M      Value
      ----------- --------  ----- ----- ----- ----- ----- ----------
    1 Stretch                  1     9                       1.08744
    2 Stretch                  2    10                       1.08744
    3 Stretch                  3    11                       1.08744
    4 Stretch                  4    12                       1.08744
    5 Stretch                  5    13                       1.08744
    6 Stretch                  6    14                       1.08744
    7 Stretch                  7    15                       1.08744
    8 Stretch                  8    16                       1.08744
    9 Stretch                  9    13                       1.56734
   10 Stretch                  9    15                       1.56734
   11 Stretch                  9    16                       1.56734
   12 Stretch                 10    14                       1.56734
   13 Stretch                 10    15                       1.56734
   14 Stretch                 10    16                       1.56734
   15 Stretch                 11    13                       1.56734
   16 Stretch                 11    14                       1.56734
   17 Stretch                 11    16                       1.56734
   18 Stretch                 12    13                       1.56734
   19 Stretch                 12    14                       1.56734
   20 Stretch                 12    15                       1.56734
   21 Bend                     1     9    13               125.26439
   22 Bend                     1     9    15               125.26439
   23 Bend                     1     9    16               125.26439
   24 Bend                     2    10    14               125.26439
   25 Bend                     2    10    15               125.26439
   26 Bend                     2    10    16               125.26439
   27 Bend                     3    11    13               125.26439
   28 Bend                     3    11    14               125.26439
   29 Bend                     3    11    16               125.26439
   30 Bend                     4    12    13               125.26439
   31 Bend                     4    12    14               125.26439
   32 Bend                     4    12    15               125.26439
   33 Bend                     5    13     9               125.26439
   34 Bend                     5    13    11               125.26439
   35 Bend                     5    13    12               125.26439
   36 Bend                     6    14    10               125.26439
   37 Bend                     6    14    11               125.26439
   38 Bend                     6    14    12               125.26439
   39 Bend                     7    15     9               125.26439
   40 Bend                     7    15    10               125.26439
   41 Bend                     7    15    12               125.26439
   42 Bend                     8    16     9               125.26439
   43 Bend                     8    16    10               125.26439
   44 Bend                     8    16    11               125.26439
   45 Bend                     9    13    11                90.00000
   46 Bend                     9    13    12                90.00000
   47 Bend                     9    15    10                90.00000
   48 Bend                     9    15    12                90.00000
   49 Bend                     9    16    10                90.00000
   50 Bend                     9    16    11                90.00000
   51 Bend                    10    14    11                90.00000
   52 Bend                    10    14    12                90.00000
   53 Bend                    10    15    12                90.00000
   54 Bend                    10    16    11                90.00000
   55 Bend                    11    13    12                90.00000
   56 Bend                    11    14    12                90.00000
   57 Bend                    13     9    15                90.00000
   58 Bend                    13     9    16                90.00000
   59 Bend                    13    11    14                90.00000
   60 Bend                    13    11    16                90.00000
   61 Bend                    13    12    14                90.00000
   62 Bend                    13    12    15                90.00000
   63 Bend                    14    10    15                90.00000
   64 Bend                    14    10    16                90.00000
   65 Bend                    14    11    16                90.00000
   66 Bend                    14    12    15                90.00000
   67 Bend                    15     9    16                90.00000
   68 Bend                    15    10    16                90.00000
   69 Torsion                  1     9    13     5           0.00000
   70 Torsion                  1     9    13    11        -135.00000
   71 Torsion                  1     9    13    12         135.00000
   72 Torsion                  1     9    15     7           0.00000
   73 Torsion                  1     9    15    10         135.00000
   74 Torsion                  1     9    15    12        -135.00000
   75 Torsion                  1     9    16     8           0.00000
   76 Torsion                  1     9    16    10        -135.00000
   77 Torsion                  1     9    16    11         135.00000
   78 Torsion                  2    10    14     6           0.00000
   79 Torsion                  2    10    14    11         135.00000
   80 Torsion                  2    10    14    12        -135.00000
   81 Torsion                  2    10    15     7           0.00000
   82 Torsion                  2    10    15     9        -135.00000
   83 Torsion                  2    10    15    12         135.00000
   84 Torsion                  2    10    16     8           0.00000
   85 Torsion                  2    10    16     9         135.00000
   86 Torsion                  2    10    16    11        -135.00000
   87 Torsion                  3    11    13     5           0.00000
   88 Torsion                  3    11    13     9         135.00000
   89 Torsion                  3    11    13    12        -135.00000
   90 Torsion                  3    11    14     6           0.00000
   91 Torsion                  3    11    14    10        -135.00000
   92 Torsion                  3    11    14    12         135.00000
   93 Torsion                  3    11    16     8           0.00000
   94 Torsion                  3    11    16     9        -135.00000
   95 Torsion                  3    11    16    10         135.00000
   96 Torsion                  4    12    13     5           0.00000
   97 Torsion                  4    12    13     9        -135.00000
   98 Torsion                  4    12    13    11         135.00000
   99 Torsion                  4    12    14     6           0.00000
  100 Torsion                  4    12    14    10         135.00000
  101 Torsion                  4    12    14    11        -135.00000
  102 Torsion                  4    12    15     7           0.00000
  103 Torsion                  4    12    15     9         135.00000
  104 Torsion                  4    12    15    10        -135.00000
  105 Torsion                  5    13     9    15        -135.00000
  106 Torsion                  5    13     9    16         135.00000
  107 Torsion                  5    13    11    14         135.00000
  108 Torsion                  5    13    11    16        -135.00000
  109 Torsion                  5    13    12    14        -135.00000
  110 Torsion                  5    13    12    15         135.00000
  111 Torsion                  6    14    10    15         135.00000
  112 Torsion                  6    14    10    16        -135.00000
  113 Torsion                  6    14    11    13        -135.00000
  114 Torsion                  6    14    11    16         135.00000
  115 Torsion                  6    14    12    13         135.00000
  116 Torsion                  6    14    12    15        -135.00000
  117 Torsion                  7    15     9    13         135.00000
  118 Torsion                  7    15     9    16        -135.00000
  119 Torsion                  7    15    10    14        -135.00000
  120 Torsion                  7    15    10    16         135.00000
  121 Torsion                  7    15    12    13        -135.00000
  122 Torsion                  7    15    12    14         135.00000
  123 Torsion                  8    16     9    13        -135.00000
  124 Torsion                  8    16     9    15         135.00000
  125 Torsion                  8    16    10    14         135.00000
  126 Torsion                  8    16    10    15        -135.00000
  127 Torsion                  8    16    11    13         135.00000
  128 Torsion                  8    16    11    14        -135.00000
  129 Torsion                  9    13    11    14         -90.00000
  130 Torsion                  9    13    11    16           0.00000
  131 Torsion                  9    13    12    14          90.00000
  132 Torsion                  9    13    12    15           0.00000
  133 Torsion                  9    15    10    14          90.00000
  134 Torsion                  9    15    10    16           0.00000
  135 Torsion                  9    15    12    13           0.00000
  136 Torsion                  9    15    12    14         -90.00000
  137 Torsion                  9    16    10    14         -90.00000
  138 Torsion                  9    16    10    15           0.00000
  139 Torsion                  9    16    11    13           0.00000
  140 Torsion                  9    16    11    14          90.00000
  141 Torsion                 10    14    11    13          90.00000
  142 Torsion                 10    14    11    16           0.00000
  143 Torsion                 10    14    12    13         -90.00000
  144 Torsion                 10    14    12    15           0.00000
  145 Torsion                 10    15     9    13         -90.00000
  146 Torsion                 10    15     9    16           0.00000
  147 Torsion                 10    15    12    13          90.00000
  148 Torsion                 10    15    12    14           0.00000
  149 Torsion                 10    16     9    13          90.00000
  150 Torsion                 10    16     9    15           0.00000
  151 Torsion                 10    16    11    13         -90.00000
  152 Torsion                 10    16    11    14           0.00000
  153 Torsion                 11    13     9    15          90.00000
  154 Torsion                 11    13     9    16           0.00000
  155 Torsion                 11    13    12    14           0.00000
  156 Torsion                 11    13    12    15         -90.00000
  157 Torsion                 11    14    10    15         -90.00000
  158 Torsion                 11    14    10    16           0.00000
  159 Torsion                 11    14    12    13           0.00000
  160 Torsion                 11    14    12    15          90.00000
  161 Torsion                 11    16     9    13           0.00000
  162 Torsion                 11    16     9    15         -90.00000
  163 Torsion                 11    16    10    14           0.00000
  164 Torsion                 11    16    10    15          90.00000
  165 Torsion                 12    13     9    15           0.00000
  166 Torsion                 12    13     9    16         -90.00000
  167 Torsion                 12    13    11    14           0.00000
  168 Torsion                 12    13    11    16          90.00000
  169 Torsion                 12    14    10    15           0.00000
  170 Torsion                 12    14    10    16          90.00000
  171 Torsion                 12    14    11    13           0.00000
  172 Torsion                 12    14    11    16         -90.00000
  173 Torsion                 12    15     9    13           0.00000
  174 Torsion                 12    15     9    16          90.00000
  175 Torsion                 12    15    10    14           0.00000
  176 Torsion                 12    15    10    16         -90.00000


            XYZ format geometry
            -------------------
    16
 geometry
 H                     1.41150317     1.41150317     1.41150317
 H                    -1.41150317    -1.41150317     1.41150317
 H                    -1.41150317     1.41150317    -1.41150317
 H                     1.41150317    -1.41150317    -1.41150317
 H                     1.41150317     1.41150317    -1.41150317
 H                    -1.41150317    -1.41150317    -1.41150317
 H                     1.41150317    -1.41150317     1.41150317
 H                    -1.41150317     1.41150317     1.41150317
 C                     0.78367213     0.78367213     0.78367213
 C                    -0.78367213    -0.78367213     0.78367213
 C                    -0.78367213     0.78367213    -0.78367213
 C                     0.78367213    -0.78367213    -0.78367213
 C                     0.78367213     0.78367213    -0.78367213
 C                    -0.78367213    -0.78367213    -0.78367213
 C                     0.78367213    -0.78367213     0.78367213
 C                    -0.78367213     0.78367213     0.78367213

 ==============================================================================
                                internuclear distances
 ------------------------------------------------------------------------------
       center one      |      center two      | atomic units |  angstroms
 ------------------------------------------------------------------------------
    9 C                |   1 H                |     2.05495  |     1.08744
   10 C                |   2 H                |     2.05495  |     1.08744
   11 C                |   3 H                |     2.05495  |     1.08744
   12 C                |   4 H                |     2.05495  |     1.08744
   13 C                |   5 H                |     2.05495  |     1.08744
   13 C                |   9 C                |     2.96185  |     1.56734
   13 C                |  11 C                |     2.96185  |     1.56734
   13 C                |  12 C                |     2.96185  |     1.56734
   14 C                |   6 H                |     2.05495  |     1.08744
   14 C                |  10 C                |     2.96185  |     1.56734
   14 C                |  11 C                |     2.96185  |     1.56734
   14 C                |  12 C                |     2.96185  |     1.56734
   15 C                |   7 H                |     2.05495  |     1.08744
   15 C                |   9 C                |     2.96185  |     1.56734
   15 C                |  10 C                |     2.96185  |     1.56734
   15 C                |  12 C                |     2.96185  |     1.56734
   16 C                |   8 H                |     2.05495  |     1.08744
   16 C                |   9 C                |     2.96185  |     1.56734
   16 C                |  10 C                |     2.96185  |     1.56734
   16 C                |  11 C                |     2.96185  |     1.56734
 ------------------------------------------------------------------------------
                         number of included internuclear distances:         20
 ==============================================================================



 ==============================================================================
                                 internuclear angles
 ------------------------------------------------------------------------------
        center 1       |       center 2       |       center 3       |  degrees
 ------------------------------------------------------------------------------
    1 H                |   9 C                |  13 C                |   125.26
    1 H                |   9 C                |  15 C                |   125.26
    1 H                |   9 C                |  16 C                |   125.26
   13 C                |   9 C                |  15 C                |    90.00
   13 C                |   9 C                |  16 C                |    90.00
   15 C                |   9 C                |  16 C                |    90.00
    2 H                |  10 C                |  14 C                |   125.26
    2 H                |  10 C                |  15 C                |   125.26
    2 H                |  10 C                |  16 C                |   125.26
   14 C                |  10 C                |  15 C                |    90.00
   14 C                |  10 C                |  16 C                |    90.00
   15 C                |  10 C                |  16 C                |    90.00
    3 H                |  11 C                |  13 C                |   125.26
    3 H                |  11 C                |  14 C                |   125.26
    3 H                |  11 C                |  16 C                |   125.26
   13 C                |  11 C                |  14 C                |    90.00
   13 C                |  11 C                |  16 C                |    90.00
   14 C                |  11 C                |  16 C                |    90.00
    4 H                |  12 C                |  13 C                |   125.26
    4 H                |  12 C                |  14 C                |   125.26
    4 H                |  12 C                |  15 C                |   125.26
   13 C                |  12 C                |  14 C                |    90.00
   13 C                |  12 C                |  15 C                |    90.00
   14 C                |  12 C                |  15 C                |    90.00
    5 H                |  13 C                |   9 C                |   125.26
    5 H                |  13 C                |  11 C                |   125.26
    5 H                |  13 C                |  12 C                |   125.26
    9 C                |  13 C                |  11 C                |    90.00
    9 C                |  13 C                |  12 C                |    90.00
   11 C                |  13 C                |  12 C                |    90.00
    6 H                |  14 C                |  10 C                |   125.26
    6 H                |  14 C                |  11 C                |   125.26
    6 H                |  14 C                |  12 C                |   125.26
   10 C                |  14 C                |  11 C                |    90.00
   10 C                |  14 C                |  12 C                |    90.00
   11 C                |  14 C                |  12 C                |    90.00
    7 H                |  15 C                |   9 C                |   125.26
    7 H                |  15 C                |  10 C                |   125.26
    7 H                |  15 C                |  12 C                |   125.26
    9 C                |  15 C                |  10 C                |    90.00
    9 C                |  15 C                |  12 C                |    90.00
   10 C                |  15 C                |  12 C                |    90.00
    8 H                |  16 C                |   9 C                |   125.26
    8 H                |  16 C                |  10 C                |   125.26
    8 H                |  16 C                |  11 C                |   125.26
    9 C                |  16 C                |  10 C                |    90.00
    9 C                |  16 C                |  11 C                |    90.00
   10 C                |  16 C                |  11 C                |    90.00
 ------------------------------------------------------------------------------
                            number of included internuclear angles:         48
 ==============================================================================



                      Basis "ao basis" -> "" (cartesian)
                      -----
  H (Hydrogen)
  ------------
            Exponent  Coefficients 
       -------------- ---------------------------------------------------------
  1 S  3.40613410E+01  0.006025
  1 S  5.12357460E+00  0.045021
  1 S  1.16466260E+00  0.201897

  2 S  3.27230410E-01  1.000000

  3 S  1.03072410E-01  1.000000

  4 P  1.40700000E+00  1.000000

  5 P  3.88000000E-01  1.000000

  6 D  1.05700000E+00  1.000000

  C (Carbon)
  ----------
            Exponent  Coefficients 
       -------------- ---------------------------------------------------------
  1 S  1.35753497E+04  0.000222
  1 S  2.03523337E+03  0.001723
  1 S  4.63225624E+02  0.008926
  1 S  1.31200196E+02  0.035728
  1 S  4.28530159E+01  0.110763
  1 S  1.55841858E+01  0.242956

  2 S  6.20671385E+00  0.414403
  2 S  2.57648965E+00  0.237450

  3 S  5.76963394E-01  1.000000

  4 S  2.29728314E-01  1.000000

  5 S  9.51644400E-02  1.000000

  6 P  3.46972322E+01  0.005333
  6 P  7.95826228E+00  0.035864
  6 P  2.37808269E+00  0.142159
  6 P  8.14332082E-01  0.342705

  7 P  2.88875473E-01  1.000000

  8 P  1.00568237E-01  1.000000

  9 D  1.09700000E+00  1.000000

 10 D  3.18000000E-01  1.000000

 11 F  7.61000000E-01  1.000000



 Summary of "ao basis" -> "" (cartesian)
 ------------------------------------------------------------------------------
       Tag                 Description            Shells   Functions and Types
 ---------------- ------------------------------  ------  ---------------------
 H                         def2-TZVPP                6       15   3s2p1d
 C                         def2-TZVPP               11       36   5s3p2d1f




                           NWChem Geometry Optimization
                           ----------------------------




                    cubane def2-TZVPP DFT geometry optimization


 maximum gradient threshold         (gmax) =   0.000450
 rms gradient threshold             (grms) =   0.000300
 maximum cartesian step threshold   (xmax) =   0.001800
 rms cartesian step threshold       (xrms) =   0.001200
 fixed trust radius                (trust) =   0.300000
 maximum step size to saddle      (sadstp) =   0.100000
 energy precision                  (eprec) =   5.0D-06
 maximum number of steps          (nptopt) =   20
 initial hessian option           (inhess) =    0
 line search option               (linopt) =    1
 hessian update option            (modupd) =    1
 saddle point option              (modsad) =    0
 initial eigen-mode to follow     (moddir) =    0
 initial variable to follow       (vardir) =    0
 follow first negative mode     (firstneg) =    T
 apply conjugacy                    (opcg) =    F
 source of zmatrix                         =   autoz   


          -------------------
          Energy Minimization
          -------------------


 Names of Z-matrix variables 
    1              2              3              4              5         
    6              7              8              9             10         
   11             12             13             14             15         
   16             17             18             19             20         
   21             22             23             24             25         
   26             27             28             29             30         
   31             32             33             34             35         
   36             37             38             39             40         
   41             42             43             44             45         
   46             47             48             49             50         
   51             52             53             54             55         
   56             57             58             59             60         
   61             62             63             64             65         
   66             67             68             69             70         
   71             72             73             74             75         
   76             77             78             79             80         
   81             82             83             84             85         
   86             87             88             89             90         
   91             92             93             94             95         
   96             97             98             99            100         
  101            102            103            104            105         
  106            107            108            109            110         
  111            112            113            114            115         
  116            117            118            119            120         
  121            122            123            124            125         
  126            127            128            129            130         
  131            132            133            134            135         
  136            137            138            139            140         
  141            142            143            144            145         
  146            147            148            149            150         
  151            152            153            154            155         
  156            157            158            159            160         
  161            162            163            164            165         
  166            167            168            169            170         
  171            172            173            174            175         
  176         

 Variables with the same non-blank name are constrained to be equal


 Using diagonal initial Hessian 
 Scaling for Hessian diagonals: bonds = 1.00  angles = 0.25  torsions = 0.10

          --------
          Step   0
          --------


                         Geometry "geometry" -> "geometry"
                         ---------------------------------

 Output coordinates in angstroms (scale by  1.889725989 to convert to a.u.)

  No.       Tag          Charge          X              Y              Z
 ---- ---------------- ---------- -------------- -------------- --------------
    1 H                    1.0000     1.41150317     1.41150317     1.41150317
    2 H                    1.0000    -1.41150317    -1.41150317     1.41150317
    3 H                    1.0000    -1.41150317     1.41150317    -1.41150317
    4 H                    1.0000     1.41150317    -1.41150317    -1.41150317
    5 H                    1.0000     1.41150317     1.41150317    -1.41150317
    6 H                    1.0000    -1.41150317    -1.41150317    -1.41150317
    7 H                    1.0000     1.41150317    -1.41150317     1.41150317
    8 H                    1.0000    -1.41150317     1.41150317     1.41150317
    9 C                    6.0000     0.78367213     0.78367213     0.78367213
   10 C                    6.0000    -0.78367213    -0.78367213     0.78367213
   11 C                    6.0000    -0.78367213     0.78367213    -0.78367213
   12 C                    6.0000     0.78367213    -0.78367213    -0.78367213
   13 C                    6.0000     0.78367213     0.78367213    -0.78367213
   14 C                    6.0000    -0.78367213    -0.78367213    -0.78367213
   15 C                    6.0000     0.78367213    -0.78367213     0.78367213
   16 C                    6.0000    -0.78367213     0.78367213     0.78367213

      Atomic Mass 
      ----------- 

      H                  1.007825
      C                 12.000000


 Effective nuclear repulsion energy (a.u.)     367.6103666819

            Nuclear Dipole moment (a.u.) 
            ----------------------------
        X                 Y               Z
 ---------------- ---------------- ----------------
     0.0000000000     0.0000000000     0.0000000000

      Symmetry information
      --------------------

 Group name              Oh       
 Group number             44
 Group order              48
 No. of unique centers     2

      Symmetry unique atoms

     1    9


                                 NWChem DFT Module
                                 -----------------


                    cubane def2-TZVPP DFT geometry optimization


  Caching 1-el integrals 

            General Information
            -------------------
          SCF calculation type: DFT
          Wavefunction type:  closed shell.
          No. of atoms     :    16
          No. of electrons :    56
           Alpha electrons :    28
            Beta electrons :    28
          Charge           :     0
          Spin multiplicity:     1
          Use of symmetry is: on ; symmetry adaption is: on 
          Maximum number of iterations:  30
          AO basis - number of functions:   408
                     number of shells:   136
          Convergence on energy requested: 1.00D-06
          Convergence on density requested: 1.00D-05
          Convergence on gradient requested: 5.00D-04

              XC Information
              --------------
                         B3LYP Method XC Potential
                     Hartree-Fock (Exact) Exchange  0.200          
                        Slater Exchange Functional  0.800 local    
                    Becke 1988 Exchange Functional  0.720 non-local
              Lee-Yang-Parr Correlation Functional  0.810          
                  VWN I RPA Correlation Functional  0.190 local    

             Grid Information
             ----------------
          Grid used for XC integration:  medium    
          Radial quadrature: Mura-Knowles        
          Angular quadrature: Lebedev. 
          Tag              B.-S. Rad. Rad. Pts. Rad. Cut. Ang. Pts.
          ---              ---------- --------- --------- ---------
          H                   0.35       45          12.0       434
          C                   0.70       49          11.0       434
          Grid pruning is: on 
          Number of quadrature shells:    94
          Spatial weights used:  Erf1

          Convergence Information
          -----------------------
          Convergence aids based upon iterative change in 
          total energy or number of iterations. 
          Levelshifting, if invoked, occurs when the 
          HOMO/LUMO gap drops below (HL_TOL): 1.00D-02
          DIIS, if invoked, will attempt to extrapolate 
          using up to (NFOCK): 10 stored Fock matrices.

                    Damping( 0%)  Levelshifting(0.5)       DIIS
                  --------------- ------------------- ---------------
          dE  on:    start            ASAP                start   
          dE off:    2 iters         30 iters            30 iters 


      Screening Tolerance Information
      -------------------------------
          Density screening/tol_rho: 1.00D-10
          AO Gaussian exp screening on grid/accAOfunc:  14
          CD Gaussian exp screening on grid/accCDfunc:  20
          XC Gaussian exp screening on grid/accXCfunc:  20
          Schwarz screening/accCoul: 1.00D-08


 WARNING : Found     1 linear dependencies 
 S eigenvalue threshold:     1.00000E-05
 Smallest S eigenvalue :     3.81316E-07
 Largest  S eigenvalue :     3.81316E-07


 !! The overlap matrix has   1 vectors deemed linearly dependent with
    eigenvalues:
 3.81D-07


      Superposition of Atomic Density Guess
      -------------------------------------

 Sum of atomic energies:        -305.36909921

      Non-variational initial energy
      ------------------------------

 Total energy =    -311.920034
 1-e energy   =   -1138.040420
 2-e energy   =     458.510020
 HOMO         =      -0.296124
 LUMO         =       0.036499


      Symmetry analysis of molecular orbitals - initial
      -------------------------------------------------

  Numbering of irreducible representations: 

     1 a1g         2 a1u         3 a2g         4 a2u         5 eg      
     6 eu          7 t1g         8 t1u         9 t2g        10 t2u     

  Orbital symmetries:

     1 a1g         2 t1u         3 t1u         4 t1u         5 t2g     
     6 t2g         7 t2g         8 a2u         9 a1g        10 t1u     
    11 t1u        12 t1u        13 t2g        14 t2g        15 t2g     
    16 a1g        17 a2u        18 eg         19 eg         20 t1u     
    21 t1u        22 t1u        23 t2u        24 t2u        25 t2u     
    26 t2g        27 t2g        28 t2g        29 t1u        30 t1u     
    31 t1u        32 a1g        33 t2g        34 t2g        35 t2g     
    36 t1u        37 t1u        38 t1u     

   Time after variat. SCF:     17.3
   Time prior to 1st pass:     17.3

 Integral file          = ./cubane.aoints.0
 Record size in doubles =  65536        No. of integs per rec  =  32766
 Max. records in memory =   1447        Max. records in file   = 100461
 No. of bits per label  =     16        No. of bits per value  =     64


 #quartets = 1.366D+06 #integrals = 1.030D+08 #direct =  0.0% #cached =100.0%


File balance: exchanges=     1  moved=    61  time=   0.2


 Grid_pts file          = ./cubane.gridpts.0
 Record size in doubles =  12289        No. of grid_pts per rec  =   3070
 Max. records in memory =      9        Max. recs in file   =    535118

 Grid integrated density:      55.989068153120
 Requested integration accuracy:   0.10E-05

           Memory utilization after 1st SCF pass: 
           Heap Space remaining (MW):        0.00                 125
          Stack Space remaining (MW):       63.23            63234377

   convergence    iter        energy       DeltaE   RMS-Dens  Diis-err    time
 ---------------- ----- ----------------- --------- --------- ---------  ------
 d= 0,ls=0.0,diis     1   -309.4785940987 -6.77D+02  3.83D-03  1.42D+00    36.1
 Grid integrated density:      56.000307305429
 Requested integration accuracy:   0.10E-05
 d= 0,ls=0.0,diis     2   -309.5664895622 -8.79D-02  1.03D-03  3.83D-02    43.2
 Grid integrated density:      56.000323839028
 Requested integration accuracy:   0.10E-05
 d= 0,ls=0.0,diis     3   -309.5653152167  1.17D-03  5.36D-04  4.81D-02    50.2
 Grid integrated density:      56.000316499104
 Requested integration accuracy:   0.10E-05
 d= 0,ls=0.0,diis     4   -309.5702673287 -4.95D-03  1.19D-04  1.54D-03    57.2
 Grid integrated density:      56.000316516910
 Requested integration accuracy:   0.10E-05
 d= 0,ls=0.0,diis     5   -309.5704601507 -1.93D-04  1.58D-05  2.05D-05    64.2
 Grid integrated density:      56.000316576025
 Requested integration accuracy:   0.10E-05
 d= 0,ls=0.0,diis     6   -309.5704630209 -2.87D-06  1.28D-06  7.12D-08    71.5
 Grid integrated density:      56.000316567107
 Requested integration accuracy:   0.10E-05
 d= 0,ls=0.0,diis     7   -309.5704630342 -1.33D-08  9.47D-08  2.42D-10    78.4


         Total DFT energy =     -309.570463034242
      One electron energy =    -1145.423922180682
           Coulomb energy =      514.716808950453
    Exchange-Corr. energy =      -46.473716485887
 Nuclear repulsion energy =      367.610366681874

 Numeric. integr. density =       56.000316567107

     Total iterative time =     61.2s



                  Occupations of the irreducible representations
                  ----------------------------------------------

                     irrep           alpha         beta
                     --------     --------     --------
                     a1g               3.0          3.0
                     a1u               0.0          0.0
                     a2g               0.0          0.0
                     a2u               2.0          2.0
                     eg                2.0          2.0
                     eu                0.0          0.0
                     t1g               0.0          0.0
                     t1u               9.0          9.0
                     t2g               9.0          9.0
                     t2u               3.0          3.0


                       DFT Final Molecular Orbital Analysis
                       ------------------------------------

 Vector    8  Occ=2.000000D+00  E=-1.017342D+01  Symmetry=a2u
              MO Center= -3.6D-12,  1.2D-11, -1.9D-11, r^2= 1.9D+00
   Bfn.  Coefficient  Atom+Function         Bfn.  Coefficient  Atom+Function  
  ----- ------------  ---------------      ----- ------------  ---------------
   122      0.212656   9 C  s               158      0.212656  10 C  s         
   194      0.212656  11 C  s               230      0.212656  12 C  s         
   266     -0.212656  13 C  s               302     -0.212656  14 C  s         
   338     -0.212656  15 C  s               374     -0.212656  16 C  s         
   121      0.165399   9 C  s               157      0.165399  10 C  s         

 Vector    9  Occ=2.000000D+00  E=-9.440547D-01  Symmetry=a1g
              MO Center=  1.8D-17,  7.7D-18, -4.0D-17, r^2= 1.6D+00
   Bfn.  Coefficient  Atom+Function         Bfn.  Coefficient  Atom+Function  
  ----- ------------  ---------------      ----- ------------  ---------------
   124      0.114490   9 C  s               160      0.114490  10 C  s         
   196      0.114490  11 C  s               232      0.114490  12 C  s         
   268      0.114490  13 C  s               304      0.114490  14 C  s         
   340      0.114490  15 C  s               376      0.114490  16 C  s         

 Vector   10  Occ=2.000000D+00  E=-7.252927D-01  Symmetry=t1u
              MO Center= -6.8D-17, -8.3D-17,  9.0D-17, r^2= 2.6D+00
   Bfn.  Coefficient  Atom+Function         Bfn.  Coefficient  Atom+Function  
  ----- ------------  ---------------      ----- ------------  ---------------
   160     -0.184962  10 C  s               268      0.184962  13 C  s         
   232      0.152857  12 C  s               376     -0.152857  16 C  s         

 Vector   11  Occ=2.000000D+00  E=-7.252927D-01  Symmetry=t1u
              MO Center= -6.9D-17, -6.9D-17,  1.7D-16, r^2= 2.6D+00
   Bfn.  Coefficient  Atom+Function         Bfn.  Coefficient  Atom+Function  
  ----- ------------  ---------------      ----- ------------  ---------------
   124     -0.197804   9 C  s               304      0.197804  14 C  s         
   123     -0.157966   9 C  s               303      0.157966  14 C  s         

 Vector   12  Occ=2.000000D+00  E=-7.252927D-01  Symmetry=t1u
              MO Center=  8.3D-17,  4.2D-17,  6.9D-18, r^2= 2.6D+00
   Bfn.  Coefficient  Atom+Function         Bfn.  Coefficient  Atom+Function  
  ----- ------------  ---------------      ----- ------------  ---------------
   196     -0.191106  11 C  s               340      0.191106  15 C  s         
   195     -0.152616  11 C  s               339      0.152616  15 C  s         

 Vector   13  Occ=2.000000D+00  E=-5.596509D-01  Symmetry=t2g
              MO Center= -7.3D-14,  4.3D-14,  4.3D-14, r^2= 4.1D+00
   Bfn.  Coefficient  Atom+Function         Bfn.  Coefficient  Atom+Function  
  ----- ------------  ---------------      ----- ------------  ---------------
   232      0.246615  12 C  s               376      0.246615  16 C  s         
   231      0.184280  12 C  s               375      0.184280  16 C  s         

 Vector   14  Occ=2.000000D+00  E=-5.596509D-01  Symmetry=t2g
              MO Center=  3.7D-16,  1.1D-16,  0.0D+00, r^2= 4.1D+00
   Bfn.  Coefficient  Atom+Function         Bfn.  Coefficient  Atom+Function  
  ----- ------------  ---------------      ----- ------------  ---------------
   160      0.216486  10 C  s               268      0.216486  13 C  s         
   124     -0.179152   9 C  s               304     -0.179152  14 C  s         
   159      0.161766  10 C  s               267      0.161766  13 C  s         

 Vector   15  Occ=2.000000D+00  E=-5.596509D-01  Symmetry=t2g
              MO Center=  0.0D+00,  2.8D-17, -9.4D-17, r^2= 4.1D+00
   Bfn.  Coefficient  Atom+Function         Bfn.  Coefficient  Atom+Function  
  ----- ------------  ---------------      ----- ------------  ---------------
   196      0.212386  11 C  s               340      0.212386  15 C  s         
   124     -0.178999   9 C  s               304     -0.178999  14 C  s         
   195      0.158702  11 C  s               339      0.158702  15 C  s         

 Vector   16  Occ=2.000000D+00  E=-5.337227D-01  Symmetry=a1g
              MO Center= -4.8D-17,  3.8D-17,  8.7D-17, r^2= 4.3D+00
   Bfn.  Coefficient  Atom+Function         Bfn.  Coefficient  Atom+Function  
  ----- ------------  ---------------      ----- ------------  ---------------
     2      0.079017   1 H  s                17      0.079017   2 H  s         
    32      0.079017   3 H  s                47      0.079017   4 H  s         
    62      0.079017   5 H  s                77      0.079017   6 H  s         
    92      0.079017   7 H  s               107      0.079017   8 H  s         

 Vector   17  Occ=2.000000D+00  E=-4.651235D-01  Symmetry=a2u
              MO Center=  7.5D-14, -4.8D-14, -4.2D-14, r^2= 5.1D+00
   Bfn.  Coefficient  Atom+Function         Bfn.  Coefficient  Atom+Function  
  ----- ------------  ---------------      ----- ------------  ---------------
   124     -0.154910   9 C  s               160     -0.154910  10 C  s         
   196     -0.154910  11 C  s               232     -0.154910  12 C  s         
   268      0.154910  13 C  s               304      0.154910  14 C  s         
   340      0.154910  15 C  s               376      0.154910  16 C  s         

 Vector   18  Occ=2.000000D+00  E=-4.343372D-01  Symmetry=eg
              MO Center=  1.3D-16, -3.7D-17,  5.9D-17, r^2= 2.6D+00
   Bfn.  Coefficient  Atom+Function         Bfn.  Coefficient  Atom+Function  
  ----- ------------  ---------------      ----- ------------  ---------------
   127     -0.109823   9 C  py              163      0.109823  10 C  py        
   199     -0.109823  11 C  py              235      0.109823  12 C  py        
   271     -0.109823  13 C  py              307      0.109823  14 C  py        
   343      0.109823  15 C  py              379     -0.109823  16 C  py        
   126      0.106101   9 C  px              162     -0.106101  10 C  px        

 Vector   19  Occ=2.000000D+00  E=-4.343372D-01  Symmetry=eg
              MO Center= -3.3D-17,  4.9D-17, -3.3D-17, r^2= 2.6D+00
   Bfn.  Coefficient  Atom+Function         Bfn.  Coefficient  Atom+Function  
  ----- ------------  ---------------      ----- ------------  ---------------
   128     -0.124664   9 C  pz              164     -0.124664  10 C  pz        
   200      0.124664  11 C  pz              236      0.124664  12 C  pz        
   272      0.124664  13 C  pz              308      0.124664  14 C  pz        
   344     -0.124664  15 C  pz              380     -0.124664  16 C  pz        

 Vector   20  Occ=2.000000D+00  E=-4.261700D-01  Symmetry=t1u
              MO Center= -1.5D-16,  2.4D-15,  6.1D-16, r^2= 4.2D+00
   Bfn.  Coefficient  Atom+Function         Bfn.  Coefficient  Atom+Function  
  ----- ------------  ---------------      ----- ------------  ---------------
    17     -0.154330   2 H  s                62      0.154330   5 H  s         

 Vector   21  Occ=2.000000D+00  E=-4.261700D-01  Symmetry=t1u
              MO Center=  6.9D-17, -9.2D-17, -9.9D-15, r^2= 4.2D+00
   Bfn.  Coefficient  Atom+Function         Bfn.  Coefficient  Atom+Function  
  ----- ------------  ---------------      ----- ------------  ---------------
    32      0.131975   3 H  s                92     -0.131975   7 H  s         
    47     -0.125360   4 H  s               107      0.125360   8 H  s         
   200     -0.123079  11 C  pz              344     -0.123079  15 C  pz        
   236      0.120972  12 C  pz              380      0.120972  16 C  pz        

 Vector   22  Occ=2.000000D+00  E=-4.261700D-01  Symmetry=t1u
              MO Center= -1.1D-15,  1.0D-15, -2.1D-16, r^2= 4.2D+00
   Bfn.  Coefficient  Atom+Function         Bfn.  Coefficient  Atom+Function  
  ----- ------------  ---------------      ----- ------------  ---------------
     2     -0.139510   1 H  s                77      0.139510   6 H  s         

 Vector   23  Occ=2.000000D+00  E=-2.759121D-01  Symmetry=t2u
              MO Center= -2.5D-16,  2.9D-16, -2.1D-16, r^2= 2.9D+00
   Bfn.  Coefficient  Atom+Function         Bfn.  Coefficient  Atom+Function  
  ----- ------------  ---------------      ----- ------------  ---------------
   200      0.149206  11 C  pz              236     -0.149206  12 C  pz        
   344      0.149206  15 C  pz              380     -0.149206  16 C  pz        
   163     -0.142692  10 C  py              235      0.142692  12 C  py        
   271     -0.142692  13 C  py              379      0.142692  16 C  py        

 Vector   24  Occ=2.000000D+00  E=-2.759121D-01  Symmetry=t2u
              MO Center=  3.1D-16,  1.4D-16,  1.1D-16, r^2= 2.9D+00
   Bfn.  Coefficient  Atom+Function         Bfn.  Coefficient  Atom+Function  
  ----- ------------  ---------------      ----- ------------  ---------------
   126     -0.168948   9 C  px              234      0.168948  12 C  px        
   306     -0.168948  14 C  px              378      0.168948  16 C  px        

 Vector   25  Occ=2.000000D+00  E=-2.759121D-01  Symmetry=t2u
              MO Center=  2.5D-14,  1.3D-14,  2.2D-14, r^2= 2.9D+00
   Bfn.  Coefficient  Atom+Function         Bfn.  Coefficient  Atom+Function  
  ----- ------------  ---------------      ----- ------------  ---------------
   127      0.164667   9 C  py              199     -0.164667  11 C  py        
   307      0.164667  14 C  py              343     -0.164667  15 C  py        

 Vector   26  Occ=2.000000D+00  E=-2.635610D-01  Symmetry=t2g
              MO Center=  7.7D-16, -1.3D-14,  9.7D-15, r^2= 3.5D+00
   Bfn.  Coefficient  Atom+Function         Bfn.  Coefficient  Atom+Function  
  ----- ------------  ---------------      ----- ------------  ---------------
   197      0.269768  11 C  s               341      0.269768  15 C  s         
   125     -0.208631   9 C  s               305     -0.208631  14 C  s         
   196      0.152439  11 C  s               340      0.152439  15 C  s         

 Vector   27  Occ=2.000000D+00  E=-2.635610D-01  Symmetry=t2g
              MO Center= -1.3D-14, -3.2D-15, -7.6D-15, r^2= 3.5D+00
   Bfn.  Coefficient  Atom+Function         Bfn.  Coefficient  Atom+Function  
  ----- ------------  ---------------      ----- ------------  ---------------
   161      0.283382  10 C  s               269      0.283382  13 C  s         
   233     -0.189806  12 C  s               377     -0.189806  16 C  s         
   160      0.160132  10 C  s               268      0.160132  13 C  s         

 Vector   28  Occ=2.000000D+00  E=-2.635610D-01  Symmetry=t2g
              MO Center= -1.2D-14,  3.4D-15, -1.8D-14, r^2= 3.5D+00
   Bfn.  Coefficient  Atom+Function         Bfn.  Coefficient  Atom+Function  
  ----- ------------  ---------------      ----- ------------  ---------------
   125      0.223446   9 C  s               233     -0.223177  12 C  s         
   305      0.223446  14 C  s               377     -0.223177  16 C  s         
   127     -0.157488   9 C  py              235     -0.157472  12 C  py        
   307      0.157488  14 C  py              379      0.157472  16 C  py        
   163     -0.151023  10 C  py              199     -0.151008  11 C  py        

 Vector   29  Occ=0.000000D+00  E= 3.829047D-02  Symmetry=t1u
              MO Center= -4.0D-15, -2.8D-15,  2.4D-16, r^2= 6.8D+00
   Bfn.  Coefficient  Atom+Function         Bfn.  Coefficient  Atom+Function  
  ----- ------------  ---------------      ----- ------------  ---------------
   161      2.444019  10 C  s               269     -2.444019  13 C  s         
   233     -1.437425  12 C  s               377      1.437425  16 C  s         
   197     -1.310100  11 C  s               341      1.310100  15 C  s         
   170     -0.677111  10 C  pz              278     -0.677111  13 C  pz        
   206     -0.671975  11 C  pz              242     -0.672552  12 C  pz        

 Vector   30  Occ=0.000000D+00  E= 3.829047D-02  Symmetry=t1u
              MO Center= -6.4D-17, -2.5D-15, -1.0D-15, r^2= 6.8D+00
   Bfn.  Coefficient  Atom+Function         Bfn.  Coefficient  Atom+Function  
  ----- ------------  ---------------      ----- ------------  ---------------
   233      2.250698  12 C  s               377     -2.250698  16 C  s         
   197     -2.156611  11 C  s               341      2.156611  15 C  s         
   205      0.605019  11 C  py              241      0.605446  12 C  py        
   349      0.605019  15 C  py              385      0.605446  16 C  py        
   133      0.596604   9 C  py              169      0.596178  10 C  py        

 Vector   31  Occ=0.000000D+00  E= 3.829047D-02  Symmetry=t1u
              MO Center=  3.3D-15,  1.7D-15, -5.3D-16, r^2= 6.8D+00
   Bfn.  Coefficient  Atom+Function         Bfn.  Coefficient  Atom+Function  
  ----- ------------  ---------------      ----- ------------  ---------------
   125      2.684114   9 C  s               305     -2.684114  14 C  s         
   161     -1.170791  10 C  s               269      1.170791  13 C  s         
   197     -1.009252  11 C  s               341      1.009252  15 C  s         
   132     -0.540633   9 C  px              312     -0.540633  14 C  px        
   168     -0.533778  10 C  px              204     -0.533046  11 C  px        

 Vector   32  Occ=0.000000D+00  E= 4.431112D-02  Symmetry=a1g
              MO Center= -4.7D-14, -2.9D-13,  2.1D-14, r^2= 1.1D+01
   Bfn.  Coefficient  Atom+Function         Bfn.  Coefficient  Atom+Function  
  ----- ------------  ---------------      ----- ------------  ---------------
     3      1.010458   1 H  s                18      1.010458   2 H  s         
    33      1.010458   3 H  s                48      1.010458   4 H  s         
    63      1.010458   5 H  s                78      1.010458   6 H  s         
    93      1.010458   7 H  s               108      1.010458   8 H  s         
   125     -0.561082   9 C  s               161     -0.561082  10 C  s         

 Vector   33  Occ=0.000000D+00  E= 9.858022D-02  Symmetry=t2g
              MO Center=  7.4D-15,  8.4D-15, -1.5D-14, r^2= 1.2D+01
   Bfn.  Coefficient  Atom+Function         Bfn.  Coefficient  Atom+Function  
  ----- ------------  ---------------      ----- ------------  ---------------
   125      3.975904   9 C  s               305      3.975904  14 C  s         
   197     -2.883531  11 C  s               341     -2.883531  15 C  s         
     3     -2.549902   1 H  s                78     -2.549902   6 H  s         
    33      1.849321   3 H  s                93      1.849321   7 H  s         
   161     -1.461354  10 C  s               269     -1.461354  13 C  s         

 Vector   34  Occ=0.000000D+00  E= 9.858022D-02  Symmetry=t2g
              MO Center= -6.3D-13,  1.6D-12, -1.7D-12, r^2= 1.2D+01
   Bfn.  Coefficient  Atom+Function         Bfn.  Coefficient  Atom+Function  
  ----- ------------  ---------------      ----- ------------  ---------------
   233      3.999694  12 C  s               377      3.999694  16 C  s         
    48     -2.565160   4 H  s               108     -2.565160   8 H  s         
   197     -2.485536  11 C  s               341     -2.485536  15 C  s         
   125     -1.996532   9 C  s               305     -1.996532  14 C  s         
    33      1.594072   3 H  s                93      1.594072   7 H  s         

 Vector   35  Occ=0.000000D+00  E= 9.858022D-02  Symmetry=t2g
              MO Center=  3.1D-15,  2.4D-14,  1.2D-14, r^2= 1.2D+01
   Bfn.  Coefficient  Atom+Function         Bfn.  Coefficient  Atom+Function  
  ----- ------------  ---------------      ----- ------------  ---------------
   161      4.174621  10 C  s               269      4.174621  13 C  s         
    18     -2.677348   2 H  s                63     -2.677348   5 H  s         
   197     -2.302837  11 C  s               341     -2.302837  15 C  s         
   233     -1.913635  12 C  s               377     -1.913635  16 C  s         
    33      1.476899   3 H  s                93      1.476899   7 H  s         

 Vector   36  Occ=0.000000D+00  E= 1.023452D-01  Symmetry=t1u
              MO Center= -1.2D-12, -2.2D-13,  1.1D-12, r^2= 1.1D+01
   Bfn.  Coefficient  Atom+Function         Bfn.  Coefficient  Atom+Function  
  ----- ------------  ---------------      ----- ------------  ---------------
    18      1.724466   2 H  s                63     -1.724466   5 H  s         
     3     -1.365055   1 H  s                78      1.365055   6 H  s         
    33     -1.316097   3 H  s                93      1.316097   7 H  s         
    48      0.956685   4 H  s               108     -0.956685   8 H  s         
   169      0.740061  10 C  py              277      0.740061  13 C  py        

 Vector   37  Occ=0.000000D+00  E= 1.023452D-01  Symmetry=t1u
              MO Center= -1.0D-13,  3.8D-13,  6.6D-13, r^2= 1.1D+01
   Bfn.  Coefficient  Atom+Function         Bfn.  Coefficient  Atom+Function  
  ----- ------------  ---------------      ----- ------------  ---------------
    48     -1.788926   4 H  s               108      1.788926   8 H  s         
    33      1.333969   3 H  s                93     -1.333969   7 H  s         
    18      1.323219   2 H  s                63     -1.323219   5 H  s         
     3     -0.868262   1 H  s                78      0.868262   6 H  s         
   240      0.758722  12 C  px              384      0.758722  16 C  px        

 Vector   38  Occ=0.000000D+00  E= 1.023452D-01  Symmetry=t1u
              MO Center=  1.6D-12, -4.6D-13,  2.9D-13, r^2= 1.1D+01
   Bfn.  Coefficient  Atom+Function         Bfn.  Coefficient  Atom+Function  
  ----- ------------  ---------------      ----- ------------  ---------------
     3      1.730934   1 H  s                78     -1.730934   6 H  s         
    33     -1.449760   3 H  s                93      1.449760   7 H  s         
    48     -1.223881   4 H  s               108      1.223881   8 H  s         
    18      0.942706   2 H  s                63     -0.942706   5 H  s         
   134     -0.741564   9 C  pz              314     -0.741564  14 C  pz        

 Vector   39  Occ=0.000000D+00  E= 1.250193D-01  Symmetry=a2u
              MO Center=  3.6D-13, -8.6D-13, -2.7D-13, r^2= 1.4D+01
   Bfn.  Coefficient  Atom+Function         Bfn.  Coefficient  Atom+Function  
  ----- ------------  ---------------      ----- ------------  ---------------
     3     -2.220111   1 H  s                18     -2.220111   2 H  s         
    33     -2.220111   3 H  s                48     -2.220111   4 H  s         
    63      2.220111   5 H  s                78      2.220111   6 H  s         
    93      2.220111   7 H  s               108      2.220111   8 H  s         
   132      1.118988   9 C  px              133      1.118988   9 C  py        

 Vector   40  Occ=0.000000D+00  E= 1.696346D-01  Symmetry=eg
              MO Center=  2.3D-15, -6.2D-16,  2.3D-16, r^2= 7.8D+00
   Bfn.  Coefficient  Atom+Function         Bfn.  Coefficient  Atom+Function  
  ----- ------------  ---------------      ----- ------------  ---------------
   132      0.320557   9 C  px              168     -0.320557  10 C  px        
   204     -0.320557  11 C  px              240      0.320557  12 C  px        
   276      0.320557  13 C  px              312     -0.320557  14 C  px        
   348      0.320557  15 C  px              384     -0.320557  16 C  px        
   129     -0.267314   9 C  px              165      0.267314  10 C  px        

 Vector   41  Occ=0.000000D+00  E= 1.696346D-01  Symmetry=eg
              MO Center= -9.2D-16, -5.5D-15, -5.1D-15, r^2= 7.8D+00
   Bfn.  Coefficient  Atom+Function         Bfn.  Coefficient  Atom+Function  
  ----- ------------  ---------------      ----- ------------  ---------------
   133      0.302192   9 C  py              169     -0.302192  10 C  py        
   205      0.302192  11 C  py              241     -0.302192  12 C  py        
   277      0.302192  13 C  py              313     -0.302192  14 C  py        
   349     -0.302192  15 C  py              385      0.302192  16 C  py        
   130     -0.251999   9 C  py              134     -0.253029   9 C  pz        

 Vector   42  Occ=0.000000D+00  E= 1.727370D-01  Symmetry=t1g
              MO Center=  3.5D-14,  3.1D-15, -1.9D-14, r^2= 5.0D+00
   Bfn.  Coefficient  Atom+Function         Bfn.  Coefficient  Atom+Function  
  ----- ------------  ---------------      ----- ------------  ---------------
   132     -0.959412   9 C  px              240      0.959412  12 C  px        
   312      0.959412  14 C  px              384     -0.959412  16 C  px        
   169     -0.868853  10 C  py              241      0.868853  12 C  py        
   277      0.868853  13 C  py              385     -0.868853  16 C  py        
   134      0.773282   9 C  pz              170     -0.773282  10 C  pz        

 Vector   43  Occ=0.000000D+00  E= 1.727370D-01  Symmetry=t1g
              MO Center=  1.9D-14,  5.2D-14,  1.6D-14, r^2= 5.0D+00
   Bfn.  Coefficient  Atom+Function         Bfn.  Coefficient  Atom+Function  
  ----- ------------  ---------------      ----- ------------  ---------------
   133     -1.054720   9 C  py              205      1.054720  11 C  py        
   313      1.054720  14 C  py              349     -1.054720  15 C  py        
   134      0.641271   9 C  pz              170     -0.641271  10 C  pz        
   278      0.641271  13 C  pz              314     -0.641271  14 C  pz        
   206      0.637544  11 C  pz              242     -0.637544  12 C  pz        

 Vector   44  Occ=0.000000D+00  E= 1.727370D-01  Symmetry=t1g
              MO Center= -3.5D-14,  3.4D-14,  1.0D-15, r^2= 5.0D+00
   Bfn.  Coefficient  Atom+Function         Bfn.  Coefficient  Atom+Function  
  ----- ------------  ---------------      ----- ------------  ---------------
   168     -0.989692  10 C  px              204      0.989692  11 C  px        
   276      0.989692  13 C  px              348     -0.989692  15 C  px        
   206     -0.864868  11 C  pz              242      0.864868  12 C  pz        
   350      0.864868  15 C  pz              386     -0.864868  16 C  pz        
   169      0.597943  10 C  py              241     -0.597943  12 C  py        

 Vector   45  Occ=0.000000D+00  E= 2.017671D-01  Symmetry=a1g
              MO Center=  3.0D-15, -1.4D-17,  3.1D-15, r^2= 6.8D+00
   Bfn.  Coefficient  Atom+Function         Bfn.  Coefficient  Atom+Function  
  ----- ------------  ---------------      ----- ------------  ---------------
   125      0.612066   9 C  s               161      0.612066  10 C  s         
   197      0.612066  11 C  s               233      0.612066  12 C  s         
   269      0.612066  13 C  s               305      0.612066  14 C  s         
   341      0.612066  15 C  s               377      0.612066  16 C  s         
   123     -0.195239   9 C  s               159     -0.195239  10 C  s         

 Vector   46  Occ=0.000000D+00  E= 2.104949D-01  Symmetry=t2g
              MO Center= -3.3D-12, -4.9D-13, -8.2D-13, r^2= 1.1D+01
   Bfn.  Coefficient  Atom+Function         Bfn.  Coefficient  Atom+Function  
  ----- ------------  ---------------      ----- ------------  ---------------
   125     20.224360   9 C  s               305     20.224360  14 C  s         
   233    -19.519805  12 C  s               377    -19.519805  16 C  s         
   197    -10.279034  11 C  s               341    -10.279034  15 C  s         
   161      9.574480  10 C  s               269      9.574480  13 C  s         
   132     -7.496725   9 C  px              312      7.496725  14 C  px        

 Vector   47  Occ=0.000000D+00  E= 2.104949D-01  Symmetry=t2g
              MO Center=  3.1D-13,  2.6D-13, -9.7D-14, r^2= 1.1D+01
   Bfn.  Coefficient  Atom+Function         Bfn.  Coefficient  Atom+Function  
  ----- ------------  ---------------      ----- ------------  ---------------
   161     20.771919  10 C  s               269     20.771919  13 C  s         
   125    -17.400113   9 C  s               305    -17.400113  14 C  s         
   233    -12.809204  12 C  s               377    -12.809204  16 C  s         
   197      9.437398  11 C  s               341      9.437398  15 C  s         
   170     -7.455166  10 C  pz              278      7.455166  13 C  pz        

 Vector   48  Occ=0.000000D+00  E= 2.104949D-01  Symmetry=t2g
              MO Center=  5.5D-12,  1.2D-12,  5.7D-12, r^2= 1.1D+01
   Bfn.  Coefficient  Atom+Function         Bfn.  Coefficient  Atom+Function  
  ----- ------------  ---------------      ----- ------------  ---------------
   197     23.362566  11 C  s               341     23.362566  15 C  s         
   161    -14.744127  10 C  s               269    -14.744127  13 C  s         
   233    -13.979773  12 C  s               377    -13.979773  16 C  s         
   204      7.939333  11 C  px              348     -7.939333  15 C  px        
   206      7.868754  11 C  pz              350     -7.868754  15 C  pz        

 Vector   49  Occ=0.000000D+00  E= 2.393003D-01  Symmetry=t2u
              MO Center= -6.2D-13, -1.7D-13,  4.6D-14, r^2= 8.8D+00
   Bfn.  Coefficient  Atom+Function         Bfn.  Coefficient  Atom+Function  
  ----- ------------  ---------------      ----- ------------  ---------------
   169     -0.572997  10 C  py              241      0.572997  12 C  py        
   277     -0.572997  13 C  py              385      0.572997  16 C  py        
   168      0.547940  10 C  px              204     -0.547940  11 C  px        
   276      0.547940  13 C  px              348     -0.547940  15 C  px        
   132     -0.528971   9 C  px              240      0.528971  12 C  px        

 Vector   50  Occ=0.000000D+00  E= 2.393003D-01  Symmetry=t2u
              MO Center=  4.7D-13, -1.2D-12, -8.8D-13, r^2= 8.8D+00
   Bfn.  Coefficient  Atom+Function         Bfn.  Coefficient  Atom+Function  
  ----- ------------  ---------------      ----- ------------  ---------------
   206     -0.714289  11 C  pz              242      0.714289  12 C  pz        
   350     -0.714289  15 C  pz              386      0.714289  16 C  pz        
   133      0.524520   9 C  py              205     -0.524520  11 C  py        
   313      0.524520  14 C  py              349     -0.524520  15 C  py        
   169      0.453830  10 C  py              241     -0.453830  12 C  py        

 Vector   51  Occ=0.000000D+00  E= 2.393003D-01  Symmetry=t2u
              MO Center=  5.1D-13,  2.4D-13, -4.3D-14, r^2= 8.8D+00
   Bfn.  Coefficient  Atom+Function         Bfn.  Coefficient  Atom+Function  
  ----- ------------  ---------------      ----- ------------  ---------------
   134      0.715597   9 C  pz              170     -0.715597  10 C  pz        
   278     -0.715597  13 C  pz              314      0.715597  14 C  pz        
   168     -0.496170  10 C  px              204      0.496170  11 C  px        
   276     -0.496170  13 C  px              348      0.496170  15 C  px        
   132     -0.484547   9 C  px              240      0.484547  12 C  px        

 Vector   52  Occ=0.000000D+00  E= 2.712991D-01  Symmetry=t1u
              MO Center=  7.4D-13,  2.4D-12,  3.9D-13, r^2= 7.7D+00
   Bfn.  Coefficient  Atom+Function         Bfn.  Coefficient  Atom+Function  
  ----- ------------  ---------------      ----- ------------  ---------------
   125      4.717550   9 C  s               305     -4.717550  14 C  s         
   197     -3.471018  11 C  s               341      3.471018  15 C  s         
   132     -2.914010   9 C  px              312     -2.914010  14 C  px        
   204     -2.477444  11 C  px              348     -2.477444  15 C  px        
   134     -2.320583   9 C  pz              314     -2.320583  14 C  pz        

 Vector   53  Occ=0.000000D+00  E= 2.712991D-01  Symmetry=t1u
              MO Center= -1.8D-12,  4.8D-13, -5.4D-12, r^2= 7.7D+00
   Bfn.  Coefficient  Atom+Function         Bfn.  Coefficient  Atom+Function  
  ----- ------------  ---------------      ----- ------------  ---------------
   233      3.743423  12 C  s               377     -3.743423  16 C  s         
   197     -3.699386  11 C  s               341      3.699386  15 C  s         
   241      2.729608  12 C  py              385      2.729608  16 C  py        
   205      2.714186  11 C  py              349      2.714186  15 C  py        
   125     -2.318701   9 C  s               305      2.318701  14 C  s         

 Vector   54  Occ=0.000000D+00  E= 2.712991D-01  Symmetry=t1u
              MO Center= -2.3D-12,  7.8D-13,  2.5D-14, r^2= 7.7D+00
   Bfn.  Coefficient  Atom+Function         Bfn.  Coefficient  Atom+Function  
  ----- ------------  ---------------      ----- ------------  ---------------
   161     -4.468861  10 C  s               269      4.468861  13 C  s         
   233      3.777537  12 C  s               377     -3.777537  16 C  s         
   170      2.860631  10 C  pz              278      2.860631  13 C  pz        
   242      2.618513  12 C  pz              386      2.618513  16 C  pz        
   168     -2.213400  10 C  px              276     -2.213400  13 C  px        

 Vector   55  Occ=0.000000D+00  E= 2.957456D-01  Symmetry=eu
              MO Center= -2.4D-13, -5.0D-13,  2.0D-13, r^2= 6.3D+00
   Bfn.  Coefficient  Atom+Function         Bfn.  Coefficient  Atom+Function  
  ----- ------------  ---------------      ----- ------------  ---------------
   132     -2.133730   9 C  px              168      2.133730  10 C  px        
   204      2.133730  11 C  px              240     -2.133730  12 C  px        
   276      2.133730  13 C  px              312     -2.133730  14 C  px        
   348      2.133730  15 C  px              384     -2.133730  16 C  px        
   133      1.764775   9 C  py              169     -1.764775  10 C  py        

 Vector   56  Occ=0.000000D+00  E= 2.957456D-01  Symmetry=eu
              MO Center=  1.1D-13, -5.0D-13, -3.9D-13, r^2= 6.3D+00
   Bfn.  Coefficient  Atom+Function         Bfn.  Coefficient  Atom+Function  
  ----- ------------  ---------------      ----- ------------  ---------------
   134     -2.250803   9 C  pz              170     -2.250803  10 C  pz        
   206      2.250803  11 C  pz              242      2.250803  12 C  pz        
   278     -2.250803  13 C  pz              314     -2.250803  14 C  pz        
   350      2.250803  15 C  pz              386      2.250803  16 C  pz        
   133      1.444926   9 C  py              169     -1.444926  10 C  py        

 Vector   57  Occ=0.000000D+00  E= 3.412256D-01  Symmetry=a1g
              MO Center= -3.4D-13, -5.1D-14,  7.7D-13, r^2= 1.2D+01
   Bfn.  Coefficient  Atom+Function         Bfn.  Coefficient  Atom+Function  
  ----- ------------  ---------------      ----- ------------  ---------------
     3      2.485259   1 H  s                18      2.485259   2 H  s         
    33      2.485259   3 H  s                48      2.485259   4 H  s         
    63      2.485259   5 H  s                78      2.485259   6 H  s         
    93      2.485259   7 H  s               108      2.485259   8 H  s         
   125     -1.740834   9 C  s               161     -1.740834  10 C  s         

 Vector   58  Occ=0.000000D+00  E= 3.945800D-01  Symmetry=t1u
              MO Center=  9.2D-13,  9.6D-14, -1.2D-13, r^2= 7.7D+00
   Bfn.  Coefficient  Atom+Function         Bfn.  Coefficient  Atom+Function  
  ----- ------------  ---------------      ----- ------------  ---------------
   161      5.807759  10 C  s               269     -5.807759  13 C  s         
   125     -3.117302   9 C  s               305      3.117302  14 C  s         
   197     -2.864606  11 C  s               341      2.864606  15 C  s         
   169      1.310869  10 C  py              277      1.310869  13 C  py        
   133      1.252510   9 C  py              205      1.247028  11 C  py        

 Vector   59  Occ=0.000000D+00  E= 3.945800D-01  Symmetry=t1u
              MO Center=  1.9D-13, -7.4D-13,  1.6D-13, r^2= 7.7D+00
   Bfn.  Coefficient  Atom+Function         Bfn.  Coefficient  Atom+Function  
  ----- ------------  ---------------      ----- ------------  ---------------
   197      5.282414  11 C  s               341     -5.282414  15 C  s         
   125     -4.856814   9 C  s               305      4.856814  14 C  s         
   204      1.163239  11 C  px              348      1.163239  15 C  px        
   132      1.154007   9 C  px              312      1.154007  14 C  px        
   206      1.074296  11 C  pz              350      1.074296  15 C  pz        

 Vector   60  Occ=0.000000D+00  E= 3.945800D-01  Symmetry=t1u
              MO Center=  2.5D-11, -2.2D-11, -1.9D-11, r^2= 7.7D+00
   Bfn.  Coefficient  Atom+Function         Bfn.  Coefficient  Atom+Function  
  ----- ------------  ---------------      ----- ------------  ---------------
   233     -6.208170  12 C  s               377      6.208170  16 C  s         
   125      2.335964   9 C  s               305     -2.335964  14 C  s         
   161      2.243379  10 C  s               269     -2.243379  13 C  s         
   197      1.628827  11 C  s               341     -1.628827  15 C  s         
   242     -1.041736  12 C  pz              386     -1.041736  16 C  pz        

 Vector   61  Occ=0.000000D+00  E= 4.006303D-01  Symmetry=t2g
              MO Center= -2.2D-11,  1.3D-11,  2.8D-11, r^2= 6.4D+00
   Bfn.  Coefficient  Atom+Function         Bfn.  Coefficient  Atom+Function  
  ----- ------------  ---------------      ----- ------------  ---------------
   233     20.980547  12 C  s               377     20.980547  16 C  s         
   197    -18.621815  11 C  s               341    -18.621815  15 C  s         
   125     -6.225532   9 C  s               305     -6.225532  14 C  s         
   242      5.086606  12 C  pz              386     -5.086606  16 C  pz        
   206     -4.977575  11 C  pz              350      4.977575  15 C  pz        

 Vector   62  Occ=0.000000D+00  E= 4.006303D-01  Symmetry=t2g
              MO Center= -7.3D-12,  1.3D-12, -2.1D-12, r^2= 6.4D+00
   Bfn.  Coefficient  Atom+Function         Bfn.  Coefficient  Atom+Function  
  ----- ------------  ---------------      ----- ------------  ---------------
   125     22.769287   9 C  s               305     22.769287  14 C  s         
   197    -16.137328  11 C  s               341    -16.137328  15 C  s         
   233     -7.778014  12 C  s               377     -7.778014  16 C  s         
   133     -5.096964   9 C  py              313      5.096964  14 C  py        
   205      4.790406  11 C  py              349     -4.790406  15 C  py        

 Vector   63  Occ=0.000000D+00  E= 4.006303D-01  Symmetry=t2g
              MO Center= -6.1D-13,  2.6D-11,  5.3D-12, r^2= 6.4D+00
   Bfn.  Coefficient  Atom+Function         Bfn.  Coefficient  Atom+Function  
  ----- ------------  ---------------      ----- ------------  ---------------
   161     24.783724  10 C  s               269     24.783724  13 C  s         
   233    -11.393757  12 C  s               377    -11.393757  16 C  s         
   125     -8.561593   9 C  s               305     -8.561593  14 C  s         
   169      4.906378  10 C  py              277     -4.906378  13 C  py        
   197     -4.828373  11 C  s               341     -4.828373  15 C  s         

 Vector   64  Occ=0.000000D+00  E= 4.008481D-01  Symmetry=t1g
              MO Center= -2.3D-12, -6.6D-13, -1.4D-12, r^2= 8.3D+00
   Bfn.  Coefficient  Atom+Function         Bfn.  Coefficient  Atom+Function  
  ----- ------------  ---------------      ----- ------------  ---------------
   133     -2.292839   9 C  py              205      2.292839  11 C  py        
   313      2.292839  14 C  py              349     -2.292839  15 C  py        
   132      1.606017   9 C  px              240     -1.606017  12 C  px        
   312     -1.606017  14 C  px              384      1.606017  16 C  px        
   168     -1.313267  10 C  px              204      1.313267  11 C  px        

 Vector   65  Occ=0.000000D+00  E= 4.008481D-01  Symmetry=t1g
              MO Center= -2.2D-14,  1.9D-14, -1.3D-13, r^2= 8.3D+00
   Bfn.  Coefficient  Atom+Function         Bfn.  Coefficient  Atom+Function  
  ----- ------------  ---------------      ----- ------------  ---------------
   168      1.896459  10 C  px              204     -1.896459  11 C  px        
   276     -1.896459  13 C  px              348      1.896459  15 C  px        
   206      1.775085  11 C  pz              242     -1.775085  12 C  pz        
   350     -1.775085  15 C  pz              386      1.775085  16 C  pz        
   134     -1.561149   9 C  pz              170      1.561149  10 C  pz        

 Vector   66  Occ=0.000000D+00  E= 4.008481D-01  Symmetry=t1g
              MO Center= -1.9D-13, -6.9D-13,  1.7D-13, r^2= 8.3D+00
   Bfn.  Coefficient  Atom+Function         Bfn.  Coefficient  Atom+Function  
  ----- ------------  ---------------      ----- ------------  ---------------
   169      2.277614  10 C  py              241     -2.277614  12 C  py        
   277     -2.277614  13 C  py              385      2.277614  16 C  py        
   134     -1.668378   9 C  pz              170      1.668378  10 C  pz        
   278     -1.668378  13 C  pz              314      1.668378  14 C  pz        
   206     -1.257738  11 C  pz              242      1.257738  12 C  pz        

 Vector   67  Occ=0.000000D+00  E= 4.092361D-01  Symmetry=a2u
              MO Center= -2.9D-12, -1.3D-12,  1.9D-12, r^2= 1.1D+01
   Bfn.  Coefficient  Atom+Function         Bfn.  Coefficient  Atom+Function  
  ----- ------------  ---------------      ----- ------------  ---------------
     3     -3.448952   1 H  s                18     -3.448952   2 H  s         
    33     -3.448952   3 H  s                48     -3.448952   4 H  s         
    63      3.448952   5 H  s                78      3.448952   6 H  s         
    93      3.448952   7 H  s               108      3.448952   8 H  s         
   132      2.298155   9 C  px              133      2.298155   9 C  py        

 Vector   68  Occ=0.000000D+00  E= 4.150101D-01  Symmetry=t1u
              MO Center=  3.5D-12,  5.6D-13, -6.1D-12, r^2= 1.1D+01
   Bfn.  Coefficient  Atom+Function         Bfn.  Coefficient  Atom+Function  
  ----- ------------  ---------------      ----- ------------  ---------------
     3      3.883988   1 H  s                78     -3.883988   6 H  s         
   125     -3.572402   9 C  s               305      3.572402  14 C  s         
    18     -3.029057   2 H  s                63      3.029057   5 H  s         
   161      2.786056  10 C  s               269     -2.786056  13 C  s         
[...]
   49 Bend                     9    16    10                90.00000    0.00000
   50 Bend                     9    16    11                90.00000    0.00000
   51 Bend                    10    14    11                90.00000    0.00000
   52 Bend                    10    14    12                90.00000    0.00000
   53 Bend                    10    15    12                90.00000    0.00000
   54 Bend                    10    16    11                90.00000    0.00000
   55 Bend                    11    13    12                90.00000    0.00000
   56 Bend                    11    14    12                90.00000    0.00000
   57 Bend                    13     9    15                90.00000    0.00000
   58 Bend                    13     9    16                90.00000    0.00000
   59 Bend                    13    11    14                90.00000    0.00000
   60 Bend                    13    11    16                90.00000    0.00000
   61 Bend                    13    12    14                90.00000    0.00000
   62 Bend                    13    12    15                90.00000    0.00000
   63 Bend                    14    10    15                90.00000    0.00000
   64 Bend                    14    10    16                90.00000    0.00000
   65 Bend                    14    11    16                90.00000    0.00000
   66 Bend                    14    12    15                90.00000    0.00000
   67 Bend                    15     9    16                90.00000    0.00000
   68 Bend                    15    10    16                90.00000    0.00000
   69 Torsion                  1     9    13     5           0.00000    0.00000
   70 Torsion                  1     9    13    11        -135.00000   -0.00000
   71 Torsion                  1     9    13    12         135.00000    0.00000
   72 Torsion                  1     9    15     7           0.00000    0.00000
   73 Torsion                  1     9    15    10         135.00000    0.00000
   74 Torsion                  1     9    15    12        -135.00000   -0.00000
   75 Torsion                  1     9    16     8           0.00000    0.00000
   76 Torsion                  1     9    16    10        -135.00000   -0.00000
   77 Torsion                  1     9    16    11         135.00000    0.00000
   78 Torsion                  2    10    14     6           0.00000    0.00000
   79 Torsion                  2    10    14    11         135.00000    0.00000
   80 Torsion                  2    10    14    12        -135.00000   -0.00000
   81 Torsion                  2    10    15     7           0.00000    0.00000
   82 Torsion                  2    10    15     9        -135.00000   -0.00000
   83 Torsion                  2    10    15    12         135.00000    0.00000
   84 Torsion                  2    10    16     8           0.00000    0.00000
   85 Torsion                  2    10    16     9         135.00000    0.00000
   86 Torsion                  2    10    16    11        -135.00000   -0.00000
   87 Torsion                  3    11    13     5           0.00000    0.00000
   88 Torsion                  3    11    13     9         135.00000    0.00000
   89 Torsion                  3    11    13    12        -135.00000   -0.00000
   90 Torsion                  3    11    14     6           0.00000    0.00000
   91 Torsion                  3    11    14    10        -135.00000   -0.00000
   92 Torsion                  3    11    14    12         135.00000    0.00000
   93 Torsion                  3    11    16     8           0.00000    0.00000
   94 Torsion                  3    11    16     9        -135.00000   -0.00000
   95 Torsion                  3    11    16    10         135.00000    0.00000
   96 Torsion                  4    12    13     5           0.00000    0.00000
   97 Torsion                  4    12    13     9        -135.00000   -0.00000
   98 Torsion                  4    12    13    11         135.00000    0.00000
   99 Torsion                  4    12    14     6           0.00000    0.00000
  100 Torsion                  4    12    14    10         135.00000    0.00000
  101 Torsion                  4    12    14    11        -135.00000   -0.00000
  102 Torsion                  4    12    15     7           0.00000    0.00000
  103 Torsion                  4    12    15     9         135.00000    0.00000
  104 Torsion                  4    12    15    10        -135.00000   -0.00000
  105 Torsion                  5    13     9    15        -135.00000   -0.00000
  106 Torsion                  5    13     9    16         135.00000    0.00000
  107 Torsion                  5    13    11    14         135.00000    0.00000
  108 Torsion                  5    13    11    16        -135.00000   -0.00000
  109 Torsion                  5    13    12    14        -135.00000   -0.00000
  110 Torsion                  5    13    12    15         135.00000    0.00000
  111 Torsion                  6    14    10    15         135.00000    0.00000
  112 Torsion                  6    14    10    16        -135.00000   -0.00000
  113 Torsion                  6    14    11    13        -135.00000   -0.00000
  114 Torsion                  6    14    11    16         135.00000    0.00000
  115 Torsion                  6    14    12    13         135.00000    0.00000
  116 Torsion                  6    14    12    15        -135.00000   -0.00000
  117 Torsion                  7    15     9    13         135.00000    0.00000
  118 Torsion                  7    15     9    16        -135.00000   -0.00000
  119 Torsion                  7    15    10    14        -135.00000   -0.00000
  120 Torsion                  7    15    10    16         135.00000    0.00000
  121 Torsion                  7    15    12    13        -135.00000   -0.00000
  122 Torsion                  7    15    12    14         135.00000    0.00000
  123 Torsion                  8    16     9    13        -135.00000   -0.00000
  124 Torsion                  8    16     9    15         135.00000    0.00000
  125 Torsion                  8    16    10    14         135.00000    0.00000
  126 Torsion                  8    16    10    15        -135.00000   -0.00000
  127 Torsion                  8    16    11    13         135.00000    0.00000
  128 Torsion                  8    16    11    14        -135.00000   -0.00000
  129 Torsion                  9    13    11    14         -90.00000    0.00000
  130 Torsion                  9    13    11    16           0.00000    0.00000
  131 Torsion                  9    13    12    14          90.00000    0.00000
  132 Torsion                  9    13    12    15           0.00000    0.00000
  133 Torsion                  9    15    10    14          90.00000    0.00000
  134 Torsion                  9    15    10    16           0.00000    0.00000
  135 Torsion                  9    15    12    13           0.00000    0.00000
  136 Torsion                  9    15    12    14         -90.00000    0.00000
  137 Torsion                  9    16    10    14         -90.00000    0.00000
  138 Torsion                  9    16    10    15           0.00000    0.00000
  139 Torsion                  9    16    11    13           0.00000    0.00000
  140 Torsion                  9    16    11    14          90.00000    0.00000
  141 Torsion                 10    14    11    13          90.00000    0.00000
  142 Torsion                 10    14    11    16           0.00000    0.00000
  143 Torsion                 10    14    12    13         -90.00000    0.00000
  144 Torsion                 10    14    12    15           0.00000    0.00000
  145 Torsion                 10    15     9    13         -90.00000    0.00000
  146 Torsion                 10    15     9    16           0.00000    0.00000
  147 Torsion                 10    15    12    13          90.00000    0.00000
  148 Torsion                 10    15    12    14           0.00000    0.00000
  149 Torsion                 10    16     9    13          90.00000    0.00000
  150 Torsion                 10    16     9    15           0.00000    0.00000
  151 Torsion                 10    16    11    13         -90.00000    0.00000
  152 Torsion                 10    16    11    14           0.00000    0.00000
  153 Torsion                 11    13     9    15          90.00000    0.00000
  154 Torsion                 11    13     9    16           0.00000    0.00000
  155 Torsion                 11    13    12    14           0.00000    0.00000
  156 Torsion                 11    13    12    15         -90.00000    0.00000
  157 Torsion                 11    14    10    15         -90.00000    0.00000
  158 Torsion                 11    14    10    16           0.00000    0.00000
  159 Torsion                 11    14    12    13           0.00000    0.00000
  160 Torsion                 11    14    12    15          90.00000    0.00000
  161 Torsion                 11    16     9    13           0.00000    0.00000
  162 Torsion                 11    16     9    15         -90.00000    0.00000
  163 Torsion                 11    16    10    14           0.00000    0.00000
  164 Torsion                 11    16    10    15          90.00000    0.00000
  165 Torsion                 12    13     9    15           0.00000    0.00000
  166 Torsion                 12    13     9    16         -90.00000    0.00000
  167 Torsion                 12    13    11    14           0.00000    0.00000
  168 Torsion                 12    13    11    16          90.00000    0.00000
  169 Torsion                 12    14    10    15           0.00000    0.00000
  170 Torsion                 12    14    10    16          90.00000    0.00000
  171 Torsion                 12    14    11    13           0.00000    0.00000
  172 Torsion                 12    14    11    16         -90.00000    0.00000
  173 Torsion                 12    15     9    13           0.00000    0.00000
  174 Torsion                 12    15     9    16          90.00000    0.00000
  175 Torsion                 12    15    10    14           0.00000    0.00000
  176 Torsion                 12    15    10    16         -90.00000    0.00000

 ==============================================================================
                                internuclear distances
 ------------------------------------------------------------------------------
       center one      |      center two      | atomic units |  angstroms
 ------------------------------------------------------------------------------
    9 C                |   1 H                |     2.05357  |     1.08670
   10 C                |   2 H                |     2.05357  |     1.08670
   11 C                |   3 H                |     2.05357  |     1.08670
   12 C                |   4 H                |     2.05357  |     1.08670
   13 C                |   5 H                |     2.05357  |     1.08670
   13 C                |   9 C                |     2.96192  |     1.56738
   13 C                |  11 C                |     2.96192  |     1.56738
   13 C                |  12 C                |     2.96192  |     1.56738
   14 C                |   6 H                |     2.05357  |     1.08670
   14 C                |  10 C                |     2.96192  |     1.56738
   14 C                |  11 C                |     2.96192  |     1.56738
   14 C                |  12 C                |     2.96192  |     1.56738
   15 C                |   7 H                |     2.05357  |     1.08670
   15 C                |   9 C                |     2.96192  |     1.56738
   15 C                |  10 C                |     2.96192  |     1.56738
   15 C                |  12 C                |     2.96192  |     1.56738
   16 C                |   8 H                |     2.05357  |     1.08670
   16 C                |   9 C                |     2.96192  |     1.56738
   16 C                |  10 C                |     2.96192  |     1.56738
   16 C                |  11 C                |     2.96192  |     1.56738
 ------------------------------------------------------------------------------
                         number of included internuclear distances:         20
 ==============================================================================



 ==============================================================================
                                 internuclear angles
 ------------------------------------------------------------------------------
        center 1       |       center 2       |       center 3       |  degrees
 ------------------------------------------------------------------------------
    1 H                |   9 C                |  13 C                |   125.26
    1 H                |   9 C                |  15 C                |   125.26
    1 H                |   9 C                |  16 C                |   125.26
   13 C                |   9 C                |  15 C                |    90.00
   13 C                |   9 C                |  16 C                |    90.00
   15 C                |   9 C                |  16 C                |    90.00
    2 H                |  10 C                |  14 C                |   125.26
    2 H                |  10 C                |  15 C                |   125.26
    2 H                |  10 C                |  16 C                |   125.26
   14 C                |  10 C                |  15 C                |    90.00
   14 C                |  10 C                |  16 C                |    90.00
   15 C                |  10 C                |  16 C                |    90.00
    3 H                |  11 C                |  13 C                |   125.26
    3 H                |  11 C                |  14 C                |   125.26
    3 H                |  11 C                |  16 C                |   125.26
   13 C                |  11 C                |  14 C                |    90.00
   13 C                |  11 C                |  16 C                |    90.00
   14 C                |  11 C                |  16 C                |    90.00
    4 H                |  12 C                |  13 C                |   125.26
    4 H                |  12 C                |  14 C                |   125.26
    4 H                |  12 C                |  15 C                |   125.26
   13 C                |  12 C                |  14 C                |    90.00
   13 C                |  12 C                |  15 C                |    90.00
   14 C                |  12 C                |  15 C                |    90.00
    5 H                |  13 C                |   9 C                |   125.26
    5 H                |  13 C                |  11 C                |   125.26
    5 H                |  13 C                |  12 C                |   125.26
    9 C                |  13 C                |  11 C                |    90.00
    9 C                |  13 C                |  12 C                |    90.00
   11 C                |  13 C                |  12 C                |    90.00
    6 H                |  14 C                |  10 C                |   125.26
    6 H                |  14 C                |  11 C                |   125.26
    6 H                |  14 C                |  12 C                |   125.26
   10 C                |  14 C                |  11 C                |    90.00
   10 C                |  14 C                |  12 C                |    90.00
   11 C                |  14 C                |  12 C                |    90.00
    7 H                |  15 C                |   9 C                |   125.26
    7 H                |  15 C                |  10 C                |   125.26
    7 H                |  15 C                |  12 C                |   125.26
    9 C                |  15 C                |  10 C                |    90.00
    9 C                |  15 C                |  12 C                |    90.00
   10 C                |  15 C                |  12 C                |    90.00
    8 H                |  16 C                |   9 C                |   125.26
    8 H                |  16 C                |  10 C                |   125.26
    8 H                |  16 C                |  11 C                |   125.26
    9 C                |  16 C                |  10 C                |    90.00
    9 C                |  16 C                |  11 C                |    90.00
   10 C                |  16 C                |  11 C                |    90.00
 ------------------------------------------------------------------------------
                            number of included internuclear angles:         48
 ==============================================================================




 Task  times  cpu:      226.6s     wall:      287.6s


                                NWChem Input Module
                                -------------------


 Summary of allocated global arrays
-----------------------------------
  No active global arrays



                         GA Statistics for process    0
                         ------------------------------

       create   destroy   get      put      acc     scatter   gather  read&inc
calls:  296      296     2.14e+05 5.11e+04 1.28e+05    0        0        0     
number of processes/call 1.05e+00 1.02e+00 1.00e+00 0.00e+00 0.00e+00
bytes total:             1.37e+09 3.55e+08 1.01e+09 0.00e+00 0.00e+00 0.00e+00
bytes remote:            2.14e+08 5.95e+07 1.12e+08 0.00e+00 0.00e+00 0.00e+00
Max memory consumed for GA by this process: 47941632 bytes

MA_summarize_allocated_blocks: starting scan ...
MA_summarize_allocated_blocks: scan completed: 0 heap blocks, 0 stack blocks
MA usage statistics:

	allocation statistics:
					      heap	     stack
					      ----	     -----
	current number of blocks	         0	         0
	maximum number of blocks	        25	        52
	current total bytes		         0	         0
	maximum total bytes		 759791928	  40472944
	maximum total K-bytes		    759792	     40473
	maximum total M-bytes		       760	        41


                                     CITATION
                                     --------
                Please cite the following reference when publishing
                           results obtained with NWChem:

                 M. Valiev, E.J. Bylaska, N. Govind, K. Kowalski,
              T.P. Straatsma, H.J.J. van Dam, D. Wang, J. Nieplocha,
                        E. Apra, T.L. Windus, W.A. de Jong
                 "NWChem: a comprehensive and scalable open-source
                  solution for large scale molecular simulations"
                      Comput. Phys. Commun. 181, 1477 (2010)
                           doi:10.1016/j.cpc.2010.04.018

                              AUTHORS & CONTRIBUTORS
                              ----------------------
      E. J. Bylaska, W. A. de Jong, N. Govind, K. Kowalski, T. P. Straatsma,
     M. Valiev, H. J. J. van Dam, D. Wang, E. Apra, T. L. Windus, J. Hammond,
    J. Autschbach, F. Aquino, J. Mullin, P. Nichols, S. Hirata, M. T. Hackler,
   Y. Zhao, P.-D. Fan, R. J. Harrison, M. Dupuis, D. M. A. Smith, K. Glaesemann,
    J. Nieplocha, V. Tipparaju, M. Krishnan, A. Vazquez-Mayagoitia, L. Jensen,
      M. Swart, Q. Wu, T. Van Voorhis, A. A. Auer, M. Nooijen, L. D. Crosby,
        E. Brown, G. Cisneros, G. I. Fann, H. Fruchtl, J. Garza, K. Hirao,
        R. Kendall, J. A. Nichols, K. Tsemekhman, K. Wolinski, J. Anchell,
       D. Bernholdt, P. Borowski, T. Clark, D. Clerc, H. Dachsel, M. Deegan,
        K. Dyall, D. Elwood, E. Glendening, M. Gutowski, A. Hess, J. Jaffe,
        B. Johnson, J. Ju, R. Kobayashi, R. Kutteh, Z. Lin, R. Littlefield,
    X. Long, B. Meng, T. Nakajima, S. Niu, L. Pollack, M. Rosing, G. Sandrone,
       M. Stave, H. Taylor, G. Thomas, J. H. van Lenthe, A. Wong, Z. Zhang.

 Total times  cpu:      226.8s     wall:      288.9s
