 argument  1 = triplet.nw
                                         
                                         


              Northwest Computational Chemistry Package (NWChem) 6.6
              ------------------------------------------------------


                    Environmental Molecular Sciences Laboratory
                       Pacific Northwest National Laboratory
                                Richland, WA 99352

                              Copyright (c) 1994-2015
                       Pacific Northwest National Laboratory
                            Battelle Memorial Institute

             NWChem is an open-source computational chemistry package
                        distributed under the terms of the
                      Educational Community License (ECL) 2.0
             A copy of the license is included with this distribution
                              in the LICENSE.TXT file

                                  ACKNOWLEDGMENT
                                  --------------

            This software and its documentation were developed at the
            EMSL at Pacific Northwest National Laboratory, a multiprogram
            national laboratory, operated for the U.S. Department of Energy
            by Battelle under Contract Number DE-AC05-76RL01830. Support
            for this work was provided by the Department of Energy Office
            of Biological and Environmental Research, Office of Basic
            Energy Sciences, and the Office of Advanced Scientific Computing.


           Job information
           ---------------

    hostname        = konkov-work
    program         = nwchem
    date            = Thu Mar 23 11:23:36 2017

    compiled        = Mon_Feb_15_08:24:17_2016
    source          = /build/nwchem-MF0R1k/nwchem-6.6+r27746
    nwchem branch   = 6.6
    nwchem revision = 27746
    ga revision     = 10594
    input           = triplet.nw
    prefix          = triplet.
    data base       = ./triplet.db
    status          = startup
    nproc           =        1
    time left       =     -1s



           Memory information
           ------------------

    heap     =   13107194 doubles =    100.0 Mbytes
    stack    =  131071999 doubles =   1000.0 Mbytes
    global   =  262144000 doubles =   2000.0 Mbytes (distinct from heap & stack)
    total    =  406323193 doubles =   3100.0 Mbytes
    verify   = yes
    hardfail = no 


           Directory information
           ---------------------

  0 permanent = .
  0 scratch   = .




                                NWChem Input Module
                                -------------------


            cubane T-biradical UHF/def2-QZVP DFT geometry optimization
            ----------------------------------------------------------

 Scaling coordinates for geometry "geometry" by  1.889725989
 (inverse scale =  0.529177249)

 Turning off AUTOSYM since
 SYMMETRY directive was detected!


          ------
          auto-z
          ------


                             Geometry "geometry" -> ""
                             -------------------------

 Output coordinates in angstroms (scale by  1.889725989 to convert to a.u.)

  No.       Tag          Charge          X              Y              Z
 ---- ---------------- ---------- -------------- -------------- --------------
    1 H                    1.0000     2.04891114    -1.28385753     0.01452527
    2 C                    6.0000     1.07007002    -0.81239360    -0.05733771
    3 H                    1.0000     2.04891114     1.28385753     0.01452527
    4 C                    6.0000     1.07007002     0.81239360    -0.05733771
    5 H                    1.0000     0.00000000    -1.61019161    -2.01624113
    6 C                    6.0000     0.00000000    -1.32325628    -0.97149624
    7 H                    1.0000     0.00000000     1.61019161    -2.01624113
    8 C                    6.0000     0.00000000     1.32325628    -0.97149624
    9 H                    1.0000     0.00000000    -1.43928333     1.94870807
   10 C                    6.0000     0.00000000    -0.77017176     1.09258543
   11 H                    1.0000     0.00000000     1.43928333     1.94870807
   12 C                    6.0000     0.00000000     0.77017176     1.09258543
   13 H                    1.0000    -2.04891114    -1.28385753     0.01452527
   14 C                    6.0000    -1.07007002    -0.81239360    -0.05733771
   15 H                    1.0000    -2.04891114     1.28385753     0.01452527
   16 C                    6.0000    -1.07007002     0.81239360    -0.05733771

      Atomic Mass 
      ----------- 

      H                  1.007825
      C                 12.000000


 Effective nuclear repulsion energy (a.u.)     359.0052734129

            Nuclear Dipole moment (a.u.) 
            ----------------------------
        X                 Y               Z
 ---------------- ---------------- ----------------
     0.0000000000     0.0000000000    -0.0000000000

      Symmetry information
      --------------------

 Group name             C2v       
 Group number             16
 Group order               4
 No. of unique centers     6

      Symmetry unique atoms

     1    2    5    6    9   10



                                Z-matrix (autoz)
                                -------- 

 Units are Angstrom for bonds and degrees for angles

      Type          Name      I     J     K     L     M      Value
      ----------- --------  ----- ----- ----- ----- ----- ----------
    1 Stretch                  1     2                       1.08884
    2 Stretch                  2     4                       1.62479
    3 Stretch                  2     6                       1.49724
    4 Stretch                  2    10                       1.57135
    5 Stretch                  3     4                       1.08884
    6 Stretch                  4     8                       1.49724
    7 Stretch                  4    12                       1.57135
    8 Stretch                  5     6                       1.08343
    9 Stretch                  6    14                       1.49724
   10 Stretch                  7     8                       1.08343
   11 Stretch                  8    16                       1.49724
   12 Stretch                  9    10                       1.08658
   13 Stretch                 10    12                       1.54034
   14 Stretch                 10    14                       1.57135
   15 Stretch                 11    12                       1.08658
   16 Stretch                 12    16                       1.57135
   17 Stretch                 13    14                       1.08884
   18 Stretch                 14    16                       1.62479
   19 Stretch                 15    16                       1.08884
   20 Bend                     1     2     4               115.65788
   21 Bend                     1     2     6               122.34746
   22 Bend                     1     2    10               125.13645
   23 Bend                     2     4     3               115.65788
   24 Bend                     2     4     8               109.95023
   25 Bend                     2     4    12                88.46029
   26 Bend                     2     6     5               132.77542
   27 Bend                     2     6    14                91.23672
   28 Bend                     2    10     9               124.05898
   29 Bend                     2    10    12                91.53971
   30 Bend                     2    10    14                85.84142
   31 Bend                     3     4     8               122.34746
   32 Bend                     3     4    12               125.13645
   33 Bend                     4     2     6               109.95023
   34 Bend                     4     2    10                88.46029
   35 Bend                     4     8     7               132.77542
   36 Bend                     4     8    16                91.23672
   37 Bend                     4    12    10                91.53971
   38 Bend                     4    12    11               124.05898
   39 Bend                     4    12    16                85.84142
   40 Bend                     5     6    14               132.77542
   41 Bend                     6     2    10                88.23975
   42 Bend                     6    14    10                88.23975
   43 Bend                     6    14    13               122.34746
   44 Bend                     6    14    16               109.95023
   45 Bend                     7     8    16               132.77542
   46 Bend                     8     4    12                88.23975
   47 Bend                     8    16    12                88.23975
   48 Bend                     8    16    14               109.95023
   49 Bend                     8    16    15               122.34746
   50 Bend                     9    10    12               128.00978
   51 Bend                     9    10    14               124.05898
   52 Bend                    10    12    11               128.00978
   53 Bend                    10    12    16                91.53971
   54 Bend                    10    14    13               125.13645
   55 Bend                    10    14    16                88.46029
   56 Bend                    11    12    16               124.05898
   57 Bend                    12    10    14                91.53971
   58 Bend                    12    16    14                88.46029
   59 Bend                    12    16    15               125.13645
   60 Bend                    13    14    16               115.65788
   61 Bend                    14    16    15               115.65788
   62 Torsion                  1     2     4     3           0.00000
   63 Torsion                  1     2     4     8         143.69172
   64 Torsion                  1     2     4    12        -128.74104
   65 Torsion                  1     2     6     5         -48.06687
   66 Torsion                  1     2     6    14         150.95347
   67 Torsion                  1     2    10     9         -18.90400
   68 Torsion                  1     2    10    12         120.71381
   69 Torsion                  1     2    10    14        -147.85388
   70 Torsion                  2     4     8     7         -92.75127
   71 Torsion                  2     4     8    16          68.22839
   72 Torsion                  2     4    12    10           0.00000
   73 Torsion                  2     4    12    11         139.61781
   74 Torsion                  2     4    12    16         -91.43231
   75 Torsion                  2     6    14    10         -19.49328
   76 Torsion                  2     6    14    13        -150.95347
   77 Torsion                  2     6    14    16          68.22839
   78 Torsion                  2    10    12     4           0.00000
   79 Torsion                  2    10    12    11        -137.06004
   80 Torsion                  2    10    12    16          85.87992
   81 Torsion                  2    10    14     6          18.58562
   82 Torsion                  2    10    14    13         147.85388
   83 Torsion                  2    10    14    16         -91.43231
   84 Torsion                  3     4     2     6        -143.69172
   85 Torsion                  3     4     2    10         128.74104
   86 Torsion                  3     4     8     7          48.06687
   87 Torsion                  3     4     8    16        -150.95347
   88 Torsion                  3     4    12    10        -120.71381
   89 Torsion                  3     4    12    11          18.90400
   90 Torsion                  3     4    12    16         147.85388
   91 Torsion                  4     2     6     5          92.75127
   92 Torsion                  4     2     6    14         -68.22839
   93 Torsion                  4     2    10     9        -139.61781
   94 Torsion                  4     2    10    12           0.00000
   95 Torsion                  4     2    10    14          91.43231
   96 Torsion                  4     8    16    12          19.49328
   97 Torsion                  4     8    16    14         -68.22839
   98 Torsion                  4     8    16    15         150.95347
   99 Torsion                  4    12    10     9         137.06004
  100 Torsion                  4    12    10    14         -85.87992
  101 Torsion                  4    12    16     8         -18.58562
  102 Torsion                  4    12    16    14          91.43231
  103 Torsion                  4    12    16    15        -147.85388
  104 Torsion                  5     6     2    10        -179.52706
  105 Torsion                  5     6    14    10         179.52706
  106 Torsion                  5     6    14    13          48.06687
  107 Torsion                  5     6    14    16         -92.75127
  108 Torsion                  6     2     4     8           0.00000
  109 Torsion                  6     2     4    12          87.56723
  110 Torsion                  6     2    10     9         110.36426
  111 Torsion                  6     2    10    12        -110.01793
  112 Torsion                  6     2    10    14         -18.58562
  113 Torsion                  6    14    10     9        -110.36426
  114 Torsion                  6    14    10    12         110.01793
  115 Torsion                  6    14    16     8           0.00000
  116 Torsion                  6    14    16    12         -87.56723
  117 Torsion                  6    14    16    15         143.69172
  118 Torsion                  7     8     4    12         179.52706
  119 Torsion                  7     8    16    12        -179.52706
  120 Torsion                  7     8    16    14          92.75127
  121 Torsion                  7     8    16    15         -48.06687
  122 Torsion                  8     4     2    10         -87.56723
  123 Torsion                  8     4    12    10         110.01793
  124 Torsion                  8     4    12    11        -110.36426
  125 Torsion                  8     4    12    16          18.58562
  126 Torsion                  8    16    12    10        -110.01793
  127 Torsion                  8    16    12    11         110.36426
  128 Torsion                  8    16    14    10          87.56723
  129 Torsion                  8    16    14    13        -143.69172
  130 Torsion                  9    10    12    11           0.00000
  131 Torsion                  9    10    12    16        -137.06004
  132 Torsion                  9    10    14    13          18.90400
  133 Torsion                  9    10    14    16         139.61781
  134 Torsion                 10     2     4    12           0.00000
  135 Torsion                 10     2     6    14          19.49328
  136 Torsion                 10    12    16    14           0.00000
  137 Torsion                 10    12    16    15         120.71381
  138 Torsion                 10    14    16    12           0.00000
  139 Torsion                 10    14    16    15        -128.74104
  140 Torsion                 11    12    10    14         137.06004
  141 Torsion                 11    12    16    14        -139.61781
  142 Torsion                 11    12    16    15         -18.90400
  143 Torsion                 12     4     8    16         -19.49328
  144 Torsion                 12    10    14    13        -120.71381
  145 Torsion                 12    10    14    16          -0.00000
  146 Torsion                 12    16    14    13         128.74104
  147 Torsion                 13    14    16    15           0.00000
  148 Torsion                 14    10    12    16           0.00000


            XYZ format geometry
            -------------------
    16
 geometry
 H                     2.04891114    -1.28385753     0.01452527
 C                     1.07007002    -0.81239360    -0.05733771
 H                     2.04891114     1.28385753     0.01452527
 C                     1.07007002     0.81239360    -0.05733771
 H                     0.00000000    -1.61019161    -2.01624113
 C                     0.00000000    -1.32325628    -0.97149624
 H                     0.00000000     1.61019161    -2.01624113
 C                     0.00000000     1.32325628    -0.97149624
 H                     0.00000000    -1.43928333     1.94870807
 C                     0.00000000    -0.77017176     1.09258543
 H                     0.00000000     1.43928333     1.94870807
 C                     0.00000000     0.77017176     1.09258543
 H                    -2.04891114    -1.28385753     0.01452527
 C                    -1.07007002    -0.81239360    -0.05733771
 H                    -2.04891114     1.28385753     0.01452527
 C                    -1.07007002     0.81239360    -0.05733771

 ==============================================================================
                                internuclear distances
 ------------------------------------------------------------------------------
       center one      |      center two      | atomic units |  angstroms
 ------------------------------------------------------------------------------
    2 C                |   1 H                |     2.05761  |     1.08884
    4 C                |   2 C                |     3.07040  |     1.62479
    4 C                |   3 H                |     2.05761  |     1.08884
    6 C                |   2 C                |     2.82937  |     1.49724
    6 C                |   5 H                |     2.04739  |     1.08343
    8 C                |   4 C                |     2.82937  |     1.49724
    8 C                |   7 H                |     2.04739  |     1.08343
   10 C                |   2 C                |     2.96943  |     1.57135
   10 C                |   9 H                |     2.05334  |     1.08658
   12 C                |   4 C                |     2.96943  |     1.57135
   12 C                |  10 C                |     2.91083  |     1.54034
   12 C                |  11 H                |     2.05334  |     1.08658
   14 C                |   6 C                |     2.82937  |     1.49724
   14 C                |  10 C                |     2.96943  |     1.57135
   14 C                |  13 H                |     2.05761  |     1.08884
   16 C                |   8 C                |     2.82937  |     1.49724
   16 C                |  12 C                |     2.96943  |     1.57135
   16 C                |  14 C                |     3.07040  |     1.62479
   16 C                |  15 H                |     2.05761  |     1.08884
 ------------------------------------------------------------------------------
                         number of included internuclear distances:         19
 ==============================================================================



 ==============================================================================
                                 internuclear angles
 ------------------------------------------------------------------------------
        center 1       |       center 2       |       center 3       |  degrees
 ------------------------------------------------------------------------------
    1 H                |   2 C                |   4 C                |   115.66
    1 H                |   2 C                |   6 C                |   122.35
    1 H                |   2 C                |  10 C                |   125.14
    4 C                |   2 C                |   6 C                |   109.95
    4 C                |   2 C                |  10 C                |    88.46
    6 C                |   2 C                |  10 C                |    88.24
    2 C                |   4 C                |   3 H                |   115.66
    2 C                |   4 C                |   8 C                |   109.95
    2 C                |   4 C                |  12 C                |    88.46
    3 H                |   4 C                |   8 C                |   122.35
    3 H                |   4 C                |  12 C                |   125.14
    8 C                |   4 C                |  12 C                |    88.24
    2 C                |   6 C                |   5 H                |   132.78
    2 C                |   6 C                |  14 C                |    91.24
    5 H                |   6 C                |  14 C                |   132.78
    4 C                |   8 C                |   7 H                |   132.78
    4 C                |   8 C                |  16 C                |    91.24
    7 H                |   8 C                |  16 C                |   132.78
    2 C                |  10 C                |   9 H                |   124.06
    2 C                |  10 C                |  12 C                |    91.54
    2 C                |  10 C                |  14 C                |    85.84
    9 H                |  10 C                |  12 C                |   128.01
    9 H                |  10 C                |  14 C                |   124.06
   12 C                |  10 C                |  14 C                |    91.54
    4 C                |  12 C                |  10 C                |    91.54
    4 C                |  12 C                |  11 H                |   124.06
    4 C                |  12 C                |  16 C                |    85.84
   10 C                |  12 C                |  11 H                |   128.01
   10 C                |  12 C                |  16 C                |    91.54
   11 H                |  12 C                |  16 C                |   124.06
    6 C                |  14 C                |  10 C                |    88.24
    6 C                |  14 C                |  13 H                |   122.35
    6 C                |  14 C                |  16 C                |   109.95
   10 C                |  14 C                |  13 H                |   125.14
   10 C                |  14 C                |  16 C                |    88.46
   13 H                |  14 C                |  16 C                |   115.66
    8 C                |  16 C                |  12 C                |    88.24
    8 C                |  16 C                |  14 C                |   109.95
    8 C                |  16 C                |  15 H                |   122.35
   12 C                |  16 C                |  14 C                |    88.46
   12 C                |  16 C                |  15 H                |   125.14
   14 C                |  16 C                |  15 H                |   115.66
 ------------------------------------------------------------------------------
                            number of included internuclear angles:         42
 ==============================================================================



  library name resolved from: environment
  library file name is: </home/vladimir/bin/nwchem-6.6/src/basis/libraries/>
  
                      Basis "ao basis" -> "" (cartesian)
                      -----
  H (Hydrogen)
  ------------
            Exponent  Coefficients 
       -------------- ---------------------------------------------------------
  1 S  1.90691690E+02  0.000708
  1 S  2.86055320E+01  0.005468
  1 S  6.50959430E+00  0.027967
  1 S  1.84124550E+00  0.107645

  2 S  5.98537250E-01  1.000000

  3 S  2.13976240E-01  1.000000

  4 S  8.03162860E-02  1.000000

  5 P  2.29200000E+00  1.000000

  6 P  8.38000000E-01  1.000000

  7 P  2.92000000E-01  1.000000

  8 D  2.06200000E+00  1.000000

  9 D  6.62000000E-01  1.000000

 10 F  1.39700000E+00  1.000000

  C (Carbon)
  ----------
            Exponent  Coefficients 
       -------------- ---------------------------------------------------------
  1 S  6.70250710E+04  0.000039
  1 S  1.00399865E+04  0.000301
  1 S  2.28493169E+03  0.001579
  1 S  6.47141221E+02  0.006609
  1 S  2.11094723E+02  0.023367
  1 S  7.61776439E+01  0.070421
  1 S  2.96338392E+01  0.173603
  1 S  1.21877851E+01  0.322923

  2 S  5.30260063E+01  0.074897
  2 S  1.52585028E+01  0.761362

  3 S  5.24039575E+00  1.000000

  4 S  2.29050224E+00  1.000000

  5 S  6.96732830E-01  1.000000

  6 S  2.75993374E-01  1.000000

  7 S  1.07398844E-01  1.000000

  8 P  1.05125551E+02  0.000846
  8 P  2.48844611E+01  0.006627
  8 P  7.86372308E+00  0.030120
  8 P  2.84070018E+00  0.099951
  8 P  1.12271373E+00  0.238263

  9 P  4.60507256E-01  1.000000

 10 P  1.89375309E-01  1.000000

 11 P  7.59837916E-02  1.000000

 12 D  1.84800000E+00  1.000000

 13 D  6.49000000E-01  1.000000

 14 D  2.28000000E-01  1.000000

 15 F  1.41900000E+00  1.000000

 16 F  4.85000000E-01  1.000000

 17 G  1.01100000E+00  1.000000



 Summary of "ao basis" -> "" (cartesian)
 ------------------------------------------------------------------------------
       Tag                 Description            Shells   Functions and Types
 ---------------- ------------------------------  ------  ---------------------
 H                         def2-QZVP                10       35   4s3p2d1f
 C                         def2-QZVP                17       72   7s4p3d2f1g




                           NWChem Geometry Optimization
                           ----------------------------




            cubane T-biradical UHF/def2-QZVP DFT geometry optimization


 maximum gradient threshold         (gmax) =   0.000450
 rms gradient threshold             (grms) =   0.000300
 maximum cartesian step threshold   (xmax) =   0.001800
 rms cartesian step threshold       (xrms) =   0.001200
 fixed trust radius                (trust) =   0.300000
 maximum step size to saddle      (sadstp) =   0.100000
 energy precision                  (eprec) =   5.0D-06
 maximum number of steps          (nptopt) =   20
 initial hessian option           (inhess) =    0
 line search option               (linopt) =    1
 hessian update option            (modupd) =    1
 saddle point option              (modsad) =    0
 initial eigen-mode to follow     (moddir) =    0
 initial variable to follow       (vardir) =    0
 follow first negative mode     (firstneg) =    T
 apply conjugacy                    (opcg) =    F
 source of zmatrix                         =   autoz   


          -------------------
          Energy Minimization
          -------------------


 Names of Z-matrix variables 
    1              2              3              4              5         
    6              7              8              9             10         
   11             12             13             14             15         
   16             17             18             19             20         
   21             22             23             24             25         
   26             27             28             29             30         
   31             32             33             34             35         
   36             37             38             39             40         
   41             42             43             44             45         
   46             47             48             49             50         
   51             52             53             54             55         
   56             57             58             59             60         
   61             62             63             64             65         
   66             67             68             69             70         
   71             72             73             74             75         
   76             77             78             79             80         
   81             82             83             84             85         
   86             87             88             89             90         
   91             92             93             94             95         
   96             97             98             99            100         
  101            102            103            104            105         
  106            107            108            109            110         
  111            112            113            114            115         
  116            117            118            119            120         
  121            122            123            124            125         
  126            127            128            129            130         
  131            132            133            134            135         
  136            137            138            139            140         
  141            142            143            144            145         
  146            147            148         

 Variables with the same non-blank name are constrained to be equal


 Using diagonal initial Hessian 
 Scaling for Hessian diagonals: bonds = 1.00  angles = 0.25  torsions = 0.10

          --------
          Step   0
          --------


                         Geometry "geometry" -> "geometry"
                         ---------------------------------

 Output coordinates in angstroms (scale by  1.889725989 to convert to a.u.)

  No.       Tag          Charge          X              Y              Z
 ---- ---------------- ---------- -------------- -------------- --------------
    1 H                    1.0000     2.04891114    -1.28385753     0.01452527
    2 C                    6.0000     1.07007002    -0.81239360    -0.05733771
    3 H                    1.0000     2.04891114     1.28385753     0.01452527
    4 C                    6.0000     1.07007002     0.81239360    -0.05733771
    5 H                    1.0000     0.00000000    -1.61019161    -2.01624113
    6 C                    6.0000     0.00000000    -1.32325628    -0.97149624
    7 H                    1.0000     0.00000000     1.61019161    -2.01624113
    8 C                    6.0000     0.00000000     1.32325628    -0.97149624
    9 H                    1.0000     0.00000000    -1.43928333     1.94870807
   10 C                    6.0000     0.00000000    -0.77017176     1.09258543
   11 H                    1.0000     0.00000000     1.43928333     1.94870807
   12 C                    6.0000     0.00000000     0.77017176     1.09258543
   13 H                    1.0000    -2.04891114    -1.28385753     0.01452527
   14 C                    6.0000    -1.07007002    -0.81239360    -0.05733771
   15 H                    1.0000    -2.04891114     1.28385753     0.01452527
   16 C                    6.0000    -1.07007002     0.81239360    -0.05733771

      Atomic Mass 
      ----------- 

      H                  1.007825
      C                 12.000000


 Effective nuclear repulsion energy (a.u.)     359.0052734129

            Nuclear Dipole moment (a.u.) 
            ----------------------------
        X                 Y               Z
 ---------------- ---------------- ----------------
     0.0000000000     0.0000000000    -0.0000000000

      Symmetry information
      --------------------

 Group name             C2v       
 Group number             16
 Group order               4
 No. of unique centers     6

      Symmetry unique atoms

     1    2    5    6    9   10


                                 NWChem DFT Module
                                 -----------------


            cubane T-biradical UHF/def2-QZVP DFT geometry optimization




 Summary of "ao basis" -> "ao basis" (cartesian)
 ------------------------------------------------------------------------------
       Tag                 Description            Shells   Functions and Types
 ---------------- ------------------------------  ------  ---------------------
 H                         def2-QZVP                10       35   4s3p2d1f
 C                         def2-QZVP                17       72   7s4p3d2f1g


      Symmetry analysis of basis
      --------------------------

        a1        251
        a2        177
        b1        177
        b2        251


            General Information
            -------------------
          SCF calculation type: DFT
          Wavefunction type:  spin polarized.
          No. of atoms     :    16
          No. of electrons :    56
           Alpha electrons :    29
            Beta electrons :    27
          Charge           :     0
          Spin multiplicity:     3
          Use of symmetry is: on ; symmetry adaption is: on 
          Maximum number of iterations:  30
          AO basis - number of functions:   856
                     number of shells:   216
          Convergence on energy requested: 1.00D-06
          Convergence on density requested: 1.00D-05
          Convergence on gradient requested: 5.00D-04

              XC Information
              --------------
                         B3LYP Method XC Potential
                     Hartree-Fock (Exact) Exchange  0.200          
                        Slater Exchange Functional  0.800 local    
                    Becke 1988 Exchange Functional  0.720 non-local
              Lee-Yang-Parr Correlation Functional  0.810          
                  VWN I RPA Correlation Functional  0.190 local    

             Grid Information
             ----------------
          Grid used for XC integration:  medium    
          Radial quadrature: Mura-Knowles        
          Angular quadrature: Lebedev. 
          Tag              B.-S. Rad. Rad. Pts. Rad. Cut. Ang. Pts.
          ---              ---------- --------- --------- ---------
          H                   0.35       45          13.0       434
          C                   0.70       49          12.0       434
          Grid pruning is: on 
          Number of quadrature shells:   282
          Spatial weights used:  Erf1

          Convergence Information
          -----------------------
          Convergence aids based upon iterative change in 
          total energy or number of iterations. 
          Levelshifting, if invoked, occurs when the 
          HOMO/LUMO gap drops below (HL_TOL): 1.00D-02
          DIIS, if invoked, will attempt to extrapolate 
          using up to (NFOCK): 10 stored Fock matrices.

                    Damping( 0%)  Levelshifting(0.5)       DIIS
                  --------------- ------------------- ---------------
          dE  on:    start            ASAP                start   
          dE off:    2 iters         30 iters            30 iters 


      Screening Tolerance Information
      -------------------------------
          Density screening/tol_rho: 1.00D-10
          AO Gaussian exp screening on grid/accAOfunc:  14
          CD Gaussian exp screening on grid/accCDfunc:  20
          XC Gaussian exp screening on grid/accXCfunc:  20
          Schwarz screening/accCoul: 1.00D-08


 WARNING : Found    11 linear dependencies 
 S eigenvalue threshold:     1.00000E-05
 Smallest S eigenvalue :     3.63926E-07
 Largest  S eigenvalue :     9.79875E-06


 !! The overlap matrix has  11 vectors deemed linearly dependent with
    eigenvalues:
 3.64D-07 1.87D-06 2.01D-06 4.10D-06 4.57D-06 6.54D-06 7.50D-06 7.95D-06
 9.17D-06 9.47D-06 9.80D-06


      Superposition of Atomic Density Guess
      -------------------------------------

 Sum of atomic energies:        -305.37913672

      Non-variational initial energy
      ------------------------------

 Total energy =    -311.511424
 1-e energy   =   -1120.838746
 2-e energy   =     450.322049
 HOMO         =      -0.178357
 LUMO         =      -0.119623


   Symmetry analysis of molecular orbitals - initial alpha
   -------------------------------------------------------

  Numbering of irreducible representations: 

     1 a1          2 a2          3 b1          4 b2      

  Orbital symmetries:

     1 a1          2 b2          3 b1          4 a1          5 b2      
     6 a2          7 a1          8 b2          9 a1         10 b2      
    11 b1         12 a1         13 b2         14 a2         15 a1      
    16 a1         17 b2         18 a1         19 b2         20 b1      
    21 a1         22 b1         23 b1         24 a2         25 a1      
    26 b2         27 a2         28 b2         29 a1         30 a1      
    31 b1         32 a1         33 b2         34 a1         35 a2      
    36 b2         37 a1         38 b1         39 b2      


   Symmetry analysis of molecular orbitals - initial beta
   ------------------------------------------------------

  Numbering of irreducible representations: 

     1 a1          2 a2          3 b1          4 b2      

  Orbital symmetries:

     1 a1          2 b2          3 b1          4 a1          5 b2      
     6 a2          7 a1          8 b2          9 a1         10 b2      
    11 b1         12 a1         13 b2         14 a2         15 a1      
    16 a1         17 b2         18 a1         19 b2         20 b1      
    21 a1         22 b1         23 b1         24 a2         25 a1      
    26 b2         27 a2         28 b2         29 a1         30 a1      
    31 b1         32 a1         33 b2         34 a1         35 a2      
    36 b2         37 a1         38 b1         39 b2      

   Time after variat. SCF:    337.6
   Time prior to 1st pass:    337.6

 Integral file          = ./triplet.aoints.0
 Record size in doubles =  65536        No. of integs per rec  =  32766
 Max. records in memory =      0        Max. records in file   = 121736
 No. of bits per label  =     16        No. of bits per value  =     64


 #quartets = 5.517D+07 #integrals = 1.070D+10 #direct = 62.7% #cached = 37.3%


 Grid_pts file          = ./triplet.gridpts.0
 Record size in doubles =  12289        No. of grid_pts per rec  =   3070
 Max. records in memory =     45        Max. recs in file   =     32809

 Grid integrated density:      56.026149640101
 Requested integration accuracy:   0.10E-05

           Memory utilization after 1st SCF pass: 
           Heap Space remaining (MW):       12.40            12397890
          Stack Space remaining (MW):      131.06           131064684

   convergence    iter        energy       DeltaE   RMS-Dens  Diis-err    time
 ---------------- ----- ----------------- --------- --------- ---------  ------
 d= 0,ls=0.0,diis     1   -309.4386457958 -6.68D+02  6.88D-04  7.19D-01   845.7
                                                     5.60D-04  6.98D-01
 d= 0,ls=0.0,diis     2   -309.5196989159 -8.11D-02  1.45D-04  1.12D-02  1255.8
                                                     9.66D-05  1.14D-02
 d= 0,ls=0.0,diis     3   -309.5192418673  4.57D-04  6.93D-05  1.35D-02  1686.2
                                                     5.74D-05  1.21D-02
 d= 0,ls=0.0,diis     4   -309.5246114624 -5.37D-03  3.02D-05  7.74D-04  2110.8
                                                     1.71D-05  8.53D-04
 d= 0,ls=0.0,diis     5   -309.5250286151 -4.17D-04  7.57D-06  2.22D-05  2537.4
                                                     4.06D-06  1.67D-05
  Resetting Diis
 d= 0,ls=0.0,diis     6   -309.5250442249 -1.56D-05  1.88D-06  1.06D-06  2971.7
                                                     1.50D-06  3.26D-06
 d= 0,ls=0.0,diis     7   -309.5250455279 -1.30D-06  2.22D-06  1.54D-06  3394.2
                                                     7.81D-07  6.83D-07
 d= 0,ls=0.0,diis     8   -309.5250451903  3.38D-07  8.47D-07  1.89D-06  3809.3
                                                     5.67D-07  2.19D-06


         Total DFT energy =     -309.525045190252
      One electron energy =    -1127.892778888562
           Coulomb energy =      505.788813960387
    Exchange-Corr. energy =      -46.426353674961
 Nuclear repulsion energy =      359.005273412884

 Numeric. integr. density =       56.000000103129

     Total iterative time =   3471.6s



                  Occupations of the irreducible representations
                  ----------------------------------------------

                     irrep           alpha         beta
                     --------     --------     --------
                     a1               11.0         10.0
                     a2                4.0          4.0
                     b1                5.0          5.0
                     b2                9.0          8.0


                    DFT Final Alpha Molecular Orbital Analysis
                    ------------------------------------------

 Vector    8  Occ=1.000000D+00  E=-1.017921D+01  Symmetry=b2
              MO Center=  5.8D-16, -3.0D-11,  1.1D+00, r^2= 6.2D-01
   Bfn.  Coefficient  Atom+Function         Bfn.  Coefficient  Atom+Function  
  ----- ------------  ---------------      ----- ------------  ---------------
   464      0.389438  10 C  s               571     -0.389438  12 C  s         
   466      0.255326  10 C  s               573     -0.255326  12 C  s         

 Vector    9  Occ=1.000000D+00  E=-9.324529D-01  Symmetry=a1
              MO Center=  4.5D-14, -9.9D-15,  1.4D-01, r^2= 1.7D+00
   Bfn.  Coefficient  Atom+Function         Bfn.  Coefficient  Atom+Function  
  ----- ------------  ---------------      ----- ------------  ---------------
   469      0.146700  10 C  s               576      0.146700  12 C  s         

 Vector   10  Occ=1.000000D+00  E=-7.886614D-01  Symmetry=b2
              MO Center=  3.6D-16,  1.2D-14, -1.9D-01, r^2= 2.5D+00
   Bfn.  Coefficient  Atom+Function         Bfn.  Coefficient  Atom+Function  
  ----- ------------  ---------------      ----- ------------  ---------------
   254      0.133655   6 C  s               255      0.133730   6 C  s         
   361     -0.133655   8 C  s               362     -0.133730   8 C  s         

 Vector   11  Occ=1.000000D+00  E=-7.167240D-01  Symmetry=b1
              MO Center= -2.7D-14,  1.7D-14,  1.2D-02, r^2= 2.8D+00
   Bfn.  Coefficient  Atom+Function         Bfn.  Coefficient  Atom+Function  
  ----- ------------  ---------------      ----- ------------  ---------------
    41      0.178357   2 C  s               148      0.178357   4 C  s         
   683     -0.178357  14 C  s               790     -0.178357  16 C  s         

 Vector   12  Occ=1.000000D+00  E=-7.003611D-01  Symmetry=a1
              MO Center= -2.4D-14,  8.6D-15,  4.8D-02, r^2= 3.0D+00
   Bfn.  Coefficient  Atom+Function         Bfn.  Coefficient  Atom+Function  
  ----- ------------  ---------------      ----- ------------  ---------------
   255      0.191396   6 C  s               362      0.191396   8 C  s         
   469     -0.184401  10 C  s               576     -0.184401  12 C  s         

 Vector   13  Occ=1.000000D+00  E=-5.885528D-01  Symmetry=b2
              MO Center= -3.5D-14, -2.5D-14, -4.4D-02, r^2= 4.2D+00
   Bfn.  Coefficient  Atom+Function         Bfn.  Coefficient  Atom+Function  
  ----- ------------  ---------------      ----- ------------  ---------------
   468     -0.137736  10 C  s               575      0.137736  12 C  s         
   254      0.125427   6 C  s               361     -0.125427   8 C  s         

 Vector   14  Occ=1.000000D+00  E=-5.817000D-01  Symmetry=a2
              MO Center=  3.4D-14, -1.6D-14, -1.1D-01, r^2= 3.9D+00
   Bfn.  Coefficient  Atom+Function         Bfn.  Coefficient  Atom+Function  
  ----- ------------  ---------------      ----- ------------  ---------------
    40      0.135564   2 C  s               147     -0.135564   4 C  s         
   682     -0.135564  14 C  s               789      0.135564  16 C  s         

 Vector   15  Occ=1.000000D+00  E=-5.623837D-01  Symmetry=a1
              MO Center= -7.3D-15,  5.7D-14, -5.7D-02, r^2= 4.2D+00
   Bfn.  Coefficient  Atom+Function         Bfn.  Coefficient  Atom+Function  
  ----- ------------  ---------------      ----- ------------  ---------------
   254      0.107177   6 C  s               361      0.107177   8 C  s         

 Vector   16  Occ=1.000000D+00  E=-5.330632D-01  Symmetry=a1
              MO Center=  2.6D-15, -9.1D-14,  2.6D-01, r^2= 4.2D+00
   Bfn.  Coefficient  Atom+Function         Bfn.  Coefficient  Atom+Function  
  ----- ------------  ---------------      ----- ------------  ---------------
   431      0.091452   9 H  s               538      0.091452  11 H  s         
    43      0.086896   2 C  px              150      0.086896   4 C  px        
   685     -0.086896  14 C  px              792     -0.086896  16 C  px        
   473      0.086084  10 C  pz              580      0.086084  12 C  pz        
     3      0.082351   1 H  s               110      0.082351   3 H  s         

 Vector   17  Occ=1.000000D+00  E=-4.803274D-01  Symmetry=b2
              MO Center= -6.6D-17, -9.0D-17,  1.1D-01, r^2= 5.1D+00
   Bfn.  Coefficient  Atom+Function         Bfn.  Coefficient  Atom+Function  
  ----- ------------  ---------------      ----- ------------  ---------------
   431      0.107137   9 H  s               538     -0.107137  11 H  s         

 Vector   18  Occ=1.000000D+00  E=-4.707268D-01  Symmetry=a1
              MO Center=  1.3D-15, -1.7D-14, -3.2D-01, r^2= 3.5D+00
   Bfn.  Coefficient  Atom+Function         Bfn.  Coefficient  Atom+Function  
  ----- ------------  ---------------      ----- ------------  ---------------
   259      0.129206   6 C  pz              366      0.129206   8 C  pz        

 Vector   19  Occ=1.000000D+00  E=-4.573932D-01  Symmetry=b2
              MO Center= -4.3D-16,  6.4D-14, -8.0D-02, r^2= 4.4D+00
   Bfn.  Coefficient  Atom+Function         Bfn.  Coefficient  Atom+Function  
  ----- ------------  ---------------      ----- ------------  ---------------
    43      0.111569   2 C  px              150     -0.111569   4 C  px        
   685     -0.111569  14 C  px              792      0.111569  16 C  px        
     3      0.106062   1 H  s               110     -0.106062   3 H  s         
   645      0.106062  13 H  s               752     -0.106062  15 H  s         

 Vector   20  Occ=1.000000D+00  E=-4.320514D-01  Symmetry=b1
              MO Center=  6.6D-15, -1.4D-17,  9.1D-02, r^2= 3.1D+00
   Bfn.  Coefficient  Atom+Function         Bfn.  Coefficient  Atom+Function  
  ----- ------------  ---------------      ----- ------------  ---------------
   471      0.114401  10 C  px              578      0.114401  12 C  px        
   474      0.108952  10 C  px              581      0.108952  12 C  px        
   477      0.107981  10 C  px              584      0.107981  12 C  px        

 Vector   21  Occ=1.000000D+00  E=-3.977930D-01  Symmetry=a1
              MO Center=  4.6D-13,  1.1D-14,  1.7D-01, r^2= 3.7D+00
   Bfn.  Coefficient  Atom+Function         Bfn.  Coefficient  Atom+Function  
  ----- ------------  ---------------      ----- ------------  ---------------
   431      0.143538   9 H  s               538      0.143538  11 H  s         

 Vector   22  Occ=1.000000D+00  E=-3.860230D-01  Symmetry=b1
              MO Center= -4.4D-13,  1.4D-16, -2.1D-01, r^2= 3.7D+00
   Bfn.  Coefficient  Atom+Function         Bfn.  Coefficient  Atom+Function  
  ----- ------------  ---------------      ----- ------------  ---------------
     3      0.125829   1 H  s               110      0.125829   3 H  s         
   645     -0.125829  13 H  s               752     -0.125829  15 H  s         

 Vector   23  Occ=1.000000D+00  E=-3.255506D-01  Symmetry=a2
              MO Center=  4.0D-14,  8.7D-14, -3.8D-01, r^2= 3.5D+00
   Bfn.  Coefficient  Atom+Function         Bfn.  Coefficient  Atom+Function  
  ----- ------------  ---------------      ----- ------------  ---------------
   257      0.164045   6 C  px              364     -0.164045   8 C  px        

 Vector   24  Occ=1.000000D+00  E=-3.183433D-01  Symmetry=b1
              MO Center= -1.2D-14, -8.1D-14,  4.2D-02, r^2= 2.9D+00
   Bfn.  Coefficient  Atom+Function         Bfn.  Coefficient  Atom+Function  
  ----- ------------  ---------------      ----- ------------  ---------------
    44      0.132982   2 C  py              151     -0.132982   4 C  py        
   686     -0.132982  14 C  py              793      0.132982  16 C  py        
    47      0.124875   2 C  py              154     -0.124875   4 C  py        
   689     -0.124875  14 C  py              796      0.124875  16 C  py        

 Vector   25  Occ=1.000000D+00  E=-2.919750D-01  Symmetry=b2
              MO Center= -3.9D-14, -4.7D-15,  1.8D-01, r^2= 3.6D+00
   Bfn.  Coefficient  Atom+Function         Bfn.  Coefficient  Atom+Function  
  ----- ------------  ---------------      ----- ------------  ---------------
   255      0.142419   6 C  s               362     -0.142419   8 C  s         
   473      0.140841  10 C  pz              580     -0.140841  12 C  pz        
   431      0.134629   9 H  s               538     -0.134629  11 H  s         

 Vector   26  Occ=1.000000D+00  E=-2.918472D-01  Symmetry=a1
              MO Center= -1.5D-15,  1.7D-15,  4.8D-01, r^2= 3.0D+00
   Bfn.  Coefficient  Atom+Function         Bfn.  Coefficient  Atom+Function  
  ----- ------------  ---------------      ----- ------------  ---------------
   472      0.180160  10 C  py              579     -0.180160  12 C  py        
   475      0.160267  10 C  py              582     -0.160267  12 C  py        

 Vector   27  Occ=1.000000D+00  E=-2.700045D-01  Symmetry=a2
              MO Center=  4.0D-16, -5.6D-15,  4.5D-01, r^2= 3.0D+00
   Bfn.  Coefficient  Atom+Function         Bfn.  Coefficient  Atom+Function  
  ----- ------------  ---------------      ----- ------------  ---------------
   471      0.163575  10 C  px              578     -0.163575  12 C  px        

 Vector   28  Occ=1.000000D+00  E=-2.178020D-01  Symmetry=b2
              MO Center= -4.6D-16, -4.2D-15, -7.9D-01, r^2= 3.5D+00
   Bfn.  Coefficient  Atom+Function         Bfn.  Coefficient  Atom+Function  
  ----- ------------  ---------------      ----- ------------  ---------------
   258      0.207965   6 C  py              365      0.207965   8 C  py        
   261      0.202790   6 C  py              368      0.202790   8 C  py        
   264      0.194756   6 C  py              371      0.194756   8 C  py        
   267      0.161745   6 C  py              374      0.161745   8 C  py        

 Vector   29  Occ=1.000000D+00  E=-1.750828D-01  Symmetry=a1
              MO Center= -2.2D-15,  4.6D-16, -6.4D-01, r^2= 3.8D+00
   Bfn.  Coefficient  Atom+Function         Bfn.  Coefficient  Atom+Function  
  ----- ------------  ---------------      ----- ------------  ---------------
   267      0.212229   6 C  py              374     -0.212229   8 C  py        
   258      0.180223   6 C  py              365     -0.180223   8 C  py        
   261      0.170860   6 C  py              368     -0.170860   8 C  py        
   264      0.152068   6 C  py              371     -0.152068   8 C  py        
    42     -0.151296   2 C  s               149     -0.151296   4 C  s         

 Vector   30  Occ=0.000000D+00  E= 1.995303D-02  Symmetry=a1
              MO Center=  2.1D-15, -1.7D-15,  1.3D-01, r^2= 1.4D+01
   Bfn.  Coefficient  Atom+Function         Bfn.  Coefficient  Atom+Function  
  ----- ------------  ---------------      ----- ------------  ---------------
   256      2.124559   6 C  s               363      2.124559   8 C  s         
   470      1.787412  10 C  s               577      1.787412  12 C  s         
     4     -1.493102   1 H  s               111     -1.493102   3 H  s         
   646     -1.493102  13 H  s               753     -1.493102  15 H  s         
    42      1.398712   2 C  s               149      1.398712   4 C  s         

 Vector   31  Occ=0.000000D+00  E= 2.405975D-02  Symmetry=a1
              MO Center=  3.2D-13,  2.4D-13,  4.8D-02, r^2= 1.1D+01
   Bfn.  Coefficient  Atom+Function         Bfn.  Coefficient  Atom+Function  
  ----- ------------  ---------------      ----- ------------  ---------------
   470      3.994610  10 C  s               577      3.994610  12 C  s         
   256     -3.137977   6 C  s               363     -3.137977   8 C  s         
   218      1.204312   5 H  s               325      1.204312   7 H  s         
   217     -0.972379   5 H  s               324     -0.972379   7 H  s         
   500     -0.940504  10 C  dzz             607     -0.940504  12 C  dzz       

 Vector   32  Occ=0.000000D+00  E= 2.828306D-02  Symmetry=b1
              MO Center= -3.8D-13,  1.5D-12,  3.2D-02, r^2= 1.1D+01
   Bfn.  Coefficient  Atom+Function         Bfn.  Coefficient  Atom+Function  
  ----- ------------  ---------------      ----- ------------  ---------------
    42      3.580159   2 C  s               149      3.580159   4 C  s         
   684     -3.580159  14 C  s               791     -3.580159  16 C  s         
     4     -1.213887   1 H  s               111     -1.213887   3 H  s         
   646      1.213887  13 H  s               753      1.213887  15 H  s         
     3      1.001009   1 H  s               110      1.001009   3 H  s         

 Vector   33  Occ=0.000000D+00  E= 4.678065D-02  Symmetry=b2
              MO Center= -4.7D-15,  7.9D-14,  4.6D-01, r^2= 1.4D+01
   Bfn.  Coefficient  Atom+Function         Bfn.  Coefficient  Atom+Function  
  ----- ------------  ---------------      ----- ------------  ---------------
   256      3.110077   6 C  s               363     -3.110077   8 C  s         
   470      2.968384  10 C  s               577     -2.968384  12 C  s         
    42      2.532176   2 C  s               149     -2.532176   4 C  s         
   684      2.532176  14 C  s               791     -2.532176  16 C  s         
   431      1.652132   9 H  s               432     -1.652904   9 H  s         

 Vector   34  Occ=0.000000D+00  E= 6.304709D-02  Symmetry=a1
              MO Center=  5.3D-14,  2.5D-12, -4.3D-01, r^2= 1.4D+01
   Bfn.  Coefficient  Atom+Function         Bfn.  Coefficient  Atom+Function  
  ----- ------------  ---------------      ----- ------------  ---------------
   470      3.162004  10 C  s               577      3.162004  12 C  s         
   218     -2.555368   5 H  s               325     -2.555368   7 H  s         
   217      1.725194   5 H  s               324      1.725194   7 H  s         
   432     -1.708869   9 H  s               539     -1.708869  11 H  s         
     4      1.678684   1 H  s               111      1.678684   3 H  s         

 Vector   35  Occ=0.000000D+00  E= 6.749066D-02  Symmetry=a2
              MO Center=  1.5D-14, -1.4D-12,  3.0D-03, r^2= 1.4D+01
   Bfn.  Coefficient  Atom+Function         Bfn.  Coefficient  Atom+Function  
  ----- ------------  ---------------      ----- ------------  ---------------
    42      4.175070   2 C  s               149     -4.175070   4 C  s         
   684     -4.175070  14 C  s               791      4.175070  16 C  s         
     4     -2.665042   1 H  s               111      2.665042   3 H  s         
   646      2.665042  13 H  s               753     -2.665042  15 H  s         
    52      1.890693   2 C  px              159     -1.890693   4 C  px        

 Vector   36  Occ=0.000000D+00  E= 6.989114D-02  Symmetry=b2
              MO Center= -4.4D-16, -7.9D-13, -8.1D-01, r^2= 1.4D+01
   Bfn.  Coefficient  Atom+Function         Bfn.  Coefficient  Atom+Function  
  ----- ------------  ---------------      ----- ------------  ---------------
   256      5.716458   6 C  s               363     -5.716458   8 C  s         
   470     -4.422561  10 C  s               577      4.422561  12 C  s         
   218     -2.189892   5 H  s               325      2.189892   7 H  s         
   432      1.859608   9 H  s               539     -1.859608  11 H  s         
   431     -1.536821   9 H  s               538      1.536821  11 H  s         

 Vector   37  Occ=0.000000D+00  E= 8.268633D-02  Symmetry=a1
              MO Center=  1.1D-13, -2.9D-14,  5.1D-01, r^2= 1.1D+01
   Bfn.  Coefficient  Atom+Function         Bfn.  Coefficient  Atom+Function  
  ----- ------------  ---------------      ----- ------------  ---------------
   432      2.579720   9 H  s               539      2.579720  11 H  s         
   218     -2.230323   5 H  s               325     -2.230323   7 H  s         
   431     -1.838733   9 H  s               538     -1.838733  11 H  s         
    42      1.723079   2 C  s               149      1.723079   4 C  s         
   684      1.723079  14 C  s               791      1.723079  16 C  s         

 Vector   38  Occ=0.000000D+00  E= 8.912215D-02  Symmetry=b1
              MO Center= -4.9D-14, -1.3D-14,  2.5D-01, r^2= 1.0D+01
   Bfn.  Coefficient  Atom+Function         Bfn.  Coefficient  Atom+Function  
  ----- ------------  ---------------      ----- ------------  ---------------
     4      2.586992   1 H  s               111      2.586992   3 H  s         
   646     -2.586992  13 H  s               753     -2.586992  15 H  s         
     3     -1.843294   1 H  s               110     -1.843294   3 H  s         
   645      1.843294  13 H  s               752      1.843294  15 H  s         
    52     -1.651699   2 C  px              159     -1.651699   4 C  px        

 Vector   39  Occ=0.000000D+00  E= 9.900356D-02  Symmetry=b2
              MO Center=  2.1D-12,  1.0D-13,  1.4D-01, r^2= 1.6D+01
   Bfn.  Coefficient  Atom+Function         Bfn.  Coefficient  Atom+Function  
  ----- ------------  ---------------      ----- ------------  ---------------
   432      3.930604   9 H  s               539     -3.930604  11 H  s         
     4     -3.350044   1 H  s               111      3.350044   3 H  s         
   646     -3.350044  13 H  s               753      3.350044  15 H  s         
    52      2.930522   2 C  px              159     -2.930522   4 C  px        
   218      2.924338   5 H  s               325     -2.924338   7 H  s         

 Vector   40  Occ=0.000000D+00  E= 1.091272D-01  Symmetry=a1
              MO Center= -4.7D-14, -1.7D-12, -3.0D-01, r^2= 1.2D+01
   Bfn.  Coefficient  Atom+Function         Bfn.  Coefficient  Atom+Function  
  ----- ------------  ---------------      ----- ------------  ---------------
   256      4.939347   6 C  s               363      4.939347   8 C  s         
    42     -3.545434   2 C  s               149     -3.545434   4 C  s         
   684     -3.545434  14 C  s               791     -3.545434  16 C  s         
    52      2.518605   2 C  px              159      2.518605   4 C  px        
   694     -2.518605  14 C  px              801     -2.518605  16 C  px        

 Vector   41  Occ=0.000000D+00  E= 1.108676D-01  Symmetry=b1
              MO Center=  1.6D-13, -3.2D-15,  1.2D-01, r^2= 1.0D+01
   Bfn.  Coefficient  Atom+Function         Bfn.  Coefficient  Atom+Function  
  ----- ------------  ---------------      ----- ------------  ---------------
    42      0.922683   2 C  s               149      0.922683   4 C  s         
   684     -0.922683  14 C  s               791     -0.922683  16 C  s         
   266     -0.756917   6 C  px              373     -0.756917   8 C  px        
   480      0.696291  10 C  px              587      0.696291  12 C  px        
    52     -0.635092   2 C  px              159     -0.635092   4 C  px        

 Vector   42  Occ=0.000000D+00  E= 1.268242D-01  Symmetry=b2
              MO Center= -3.1D-15, -4.3D-14,  9.6D-01, r^2= 8.1D+00
   Bfn.  Coefficient  Atom+Function         Bfn.  Coefficient  Atom+Function  
  ----- ------------  ---------------      ----- ------------  ---------------
   481      2.612519  10 C  py              588      2.612519  12 C  py        
   432      2.321352   9 H  s               539     -2.321352  11 H  s         
     4      1.913594   1 H  s               111     -1.913594   3 H  s         
   646      1.913594  13 H  s               753     -1.913594  15 H  s         
   256      1.313069   6 C  s               363     -1.313069   8 C  s         

 Vector   43  Occ=0.000000D+00  E= 1.502830D-01  Symmetry=a1
              MO Center= -6.0D-15, -1.1D-13,  8.5D-02, r^2= 1.0D+01
   Bfn.  Coefficient  Atom+Function         Bfn.  Coefficient  Atom+Function  
  ----- ------------  ---------------      ----- ------------  ---------------
   256      3.799755   6 C  s               363      3.799755   8 C  s         
    42     -2.927015   2 C  s               149     -2.927015   4 C  s         
   684     -2.927015  14 C  s               791     -2.927015  16 C  s         
   470      2.321810  10 C  s               577      2.321810  12 C  s         
    41      2.288408   2 C  s               148      2.288408   4 C  s         

 Vector   44  Occ=0.000000D+00  E= 1.534836D-01  Symmetry=a2
              MO Center= -4.4D-15,  3.1D-14, -6.6D-01, r^2= 7.9D+00
   Bfn.  Coefficient  Atom+Function         Bfn.  Coefficient  Atom+Function  
  ----- ------------  ---------------      ----- ------------  ---------------
   266      1.598855   6 C  px              373     -1.598855   8 C  px        
    53      1.536361   2 C  py              160      1.536361   4 C  py        
   695     -1.536361  14 C  py              802     -1.536361  16 C  py        
    52      1.065588   2 C  px              159     -1.065588   4 C  px        
   694      1.065588  14 C  px              801     -1.065588  16 C  px        

 Vector   45  Occ=0.000000D+00  E= 1.537522D-01  Symmetry=b2
              MO Center=  1.1D-14, -8.9D-14, -1.1D+00, r^2= 1.2D+01
   Bfn.  Coefficient  Atom+Function         Bfn.  Coefficient  Atom+Function  
  ----- ------------  ---------------      ----- ------------  ---------------
   256      4.195760   6 C  s               363     -4.195760   8 C  s         
   218      3.901273   5 H  s               325     -3.901273   7 H  s         
   268      3.124363   6 C  pz              375     -3.124363   8 C  pz        
   267      2.729356   6 C  py              374      2.729356   8 C  py        
   217     -2.547433   5 H  s               324      2.547433   7 H  s         

 Vector   46  Occ=0.000000D+00  E= 1.601405D-01  Symmetry=b1
              MO Center= -9.4D-14, -5.6D-17, -5.0D-01, r^2= 1.1D+01
   Bfn.  Coefficient  Atom+Function         Bfn.  Coefficient  Atom+Function  
  ----- ------------  ---------------      ----- ------------  ---------------
   266     -1.764265   6 C  px              373     -1.764265   8 C  px        
    42      1.692922   2 C  s               149      1.692922   4 C  s         
   684     -1.692922  14 C  s               791     -1.692922  16 C  s         
     4      0.748665   1 H  s                54     -0.750503   2 C  pz        
   111      0.748665   3 H  s               161     -0.750503   4 C  pz        

 Vector   47  Occ=0.000000D+00  E= 1.658172D-01  Symmetry=a2
              MO Center= -8.5D-13, -2.9D-14, -3.9D-01, r^2= 1.1D+01
   Bfn.  Coefficient  Atom+Function         Bfn.  Coefficient  Atom+Function  
  ----- ------------  ---------------      ----- ------------  ---------------
     4      4.410499   1 H  s               111     -4.410499   3 H  s         
   646     -4.410499  13 H  s               753      4.410499  15 H  s         
    52     -4.043431   2 C  px              159      4.043431   4 C  px        
   694     -4.043431  14 C  px              801      4.043431  16 C  px        
    53      2.364082   2 C  py              160      2.364082   4 C  py        

 Vector   48  Occ=0.000000D+00  E= 1.709629D-01  Symmetry=b1
              MO Center= -6.6D-14, -9.1D-13,  2.4D-01, r^2= 8.3D+00
   Bfn.  Coefficient  Atom+Function         Bfn.  Coefficient  Atom+Function  
  ----- ------------  ---------------      ----- ------------  ---------------
   266     -1.871610   6 C  px              373     -1.871610   8 C  px        
    42      1.852704   2 C  s               149      1.852704   4 C  s         
   684     -1.852704  14 C  s               791     -1.852704  16 C  s         
    54     -1.502489   2 C  pz              161     -1.502489   4 C  pz        
   696      1.502489  14 C  pz              803      1.502489  16 C  pz        

 Vector   49  Occ=0.000000D+00  E= 1.803874D-01  Symmetry=a1
              MO Center=  4.1D-13, -1.7D-13, -1.9D-02, r^2= 9.5D+00
   Bfn.  Coefficient  Atom+Function         Bfn.  Coefficient  Atom+Function  
  ----- ------------  ---------------      ----- ------------  ---------------
    42      2.669164   2 C  s               149      2.669164   4 C  s         
   684      2.669164  14 C  s               791      2.669164  16 C  s         
   218     -1.966465   5 H  s               325     -1.966465   7 H  s         
   431     -1.923463   9 H  s               538     -1.923463  11 H  s         
   482      1.875048  10 C  pz              589      1.875048  12 C  pz        

 Vector   50  Occ=0.000000D+00  E= 1.823095D-01  Symmetry=b2
              MO Center=  5.3D-12,  2.3D-12,  4.9D-02, r^2= 1.0D+01
   Bfn.  Coefficient  Atom+Function         Bfn.  Coefficient  Atom+Function  
  ----- ------------  ---------------      ----- ------------  ---------------
   432      3.912417   9 H  s               539     -3.912417  11 H  s         
   470      3.559151  10 C  s               577     -3.559151  12 C  s         
   482     -3.520763  10 C  pz              589      3.520763  12 C  pz        
    54     -1.876037   2 C  pz              161      1.876037   4 C  pz        
   696     -1.876037  14 C  pz              803      1.876037  16 C  pz        

 Vector   51  Occ=0.000000D+00  E= 1.829252D-01  Symmetry=a2
              MO Center= -5.2D-12,  1.2D-12,  1.2D+00, r^2= 1.1D+01
   Bfn.  Coefficient  Atom+Function         Bfn.  Coefficient  Atom+Function  
  ----- ------------  ---------------      ----- ------------  ---------------
    52     -4.384451   2 C  px              159      4.384451   4 C  px        
   694     -4.384451  14 C  px              801      4.384451  16 C  px        
     4      4.303504   1 H  s               111     -4.303504   3 H  s         
   646     -4.303504  13 H  s               753      4.303504  15 H  s         
    42      3.096916   2 C  s               149     -3.096916   4 C  s         

 Vector   52  Occ=0.000000D+00  E= 2.087755D-01  Symmetry=a1
              MO Center=  1.0D-12, -2.0D-12,  6.3D-01, r^2= 1.0D+01
   Bfn.  Coefficient  Atom+Function         Bfn.  Coefficient  Atom+Function  
  ----- ------------  ---------------      ----- ------------  ---------------
   470      6.818936  10 C  s               577      6.818936  12 C  s         
   482     -5.939548  10 C  pz              589     -5.939548  12 C  pz        
   432      5.861260   9 H  s               539      5.861260  11 H  s         
   256     -5.823330   6 C  s               363     -5.823330   8 C  s         
   481      3.895769  10 C  py              588     -3.895769  12 C  py        

 Vector   53  Occ=0.000000D+00  E= 2.106942D-01  Symmetry=a1
              MO Center= -1.5D-13, -4.9D-13, -4.2D-01, r^2= 1.2D+01
   Bfn.  Coefficient  Atom+Function         Bfn.  Coefficient  Atom+Function  
  ----- ------------  ---------------      ----- ------------  ---------------
   431      2.208134   9 H  s               538      2.208134  11 H  s         
   256     -1.952268   6 C  s               363     -1.952268   8 C  s         
    53     -1.889248   2 C  py              160      1.889248   4 C  py        
   695     -1.889248  14 C  py              802      1.889248  16 C  py        
   267      1.583842   6 C  py              374     -1.583842   8 C  py        

 Vector   54  Occ=0.000000D+00  E= 2.278866D-01  Symmetry=b1
              MO Center= -9.6D-13, -7.8D-13,  3.6D-01, r^2= 1.0D+01
   Bfn.  Coefficient  Atom+Function         Bfn.  Coefficient  Atom+Function  
  ----- ------------  ---------------      ----- ------------  ---------------
    42      6.299373   2 C  s               149      6.299373   4 C  s         
   684     -6.299373  14 C  s               791     -6.299373  16 C  s         
    52     -3.897825   2 C  px              159     -3.897825   4 C  px        
   694     -3.897825  14 C  px              801     -3.897825  16 C  px        
     4      3.268571   1 H  s               111      3.268571   3 H  s         

 Vector   55  Occ=0.000000D+00  E= 2.501773D-01  Symmetry=b2
              MO Center= -8.6D-13, -9.6D-11,  4.8D-01, r^2= 9.4D+00
   Bfn.  Coefficient  Atom+Function         Bfn.  Coefficient  Atom+Function  
  ----- ------------  ---------------      ----- ------------  ---------------
   470     -8.756664  10 C  s               577      8.756664  12 C  s         
   481     -8.216649  10 C  py              588     -8.216649  12 C  py        
   256      7.988855   6 C  s               363     -7.988855   8 C  s         
   432     -4.964984   9 H  s               539      4.964984  11 H  s         
   268      3.855627   6 C  pz              375     -3.855627   8 C  pz        

 Vector   56  Occ=0.000000D+00  E= 2.503443D-01  Symmetry=a1
              MO Center= -1.4D-12,  9.0D-11,  5.7D-01, r^2= 1.4D+01
   Bfn.  Coefficient  Atom+Function         Bfn.  Coefficient  Atom+Function  
  ----- ------------  ---------------      ----- ------------  ---------------
   256      7.589274   6 C  s               363      7.589274   8 C  s         
   470      7.193955  10 C  s               577      7.193955  12 C  s         
     4     -5.291323   1 H  s               111     -5.291323   3 H  s         
   646     -5.291323  13 H  s               753     -5.291323  15 H  s         
    52      4.453707   2 C  px              159      4.453707   4 C  px        

 Vector   57  Occ=0.000000D+00  E= 2.659964D-01  Symmetry=b2
              MO Center= -3.3D-11,  4.3D-12, -7.4D-02, r^2= 1.1D+01
   Bfn.  Coefficient  Atom+Function         Bfn.  Coefficient  Atom+Function  
  ----- ------------  ---------------      ----- ------------  ---------------
   470      8.292958  10 C  s               577     -8.292958  12 C  s         
   482     -5.320201  10 C  pz              589      5.320201  12 C  pz        
    42      4.622936   2 C  s               149     -4.622936   4 C  s         
   684      4.622936  14 C  s               791     -4.622936  16 C  s         
    53      4.328668   2 C  py              160      4.328668   4 C  py        

 Vector   58  Occ=0.000000D+00  E= 2.686114D-01  Symmetry=a2
              MO Center=  3.4D-11,  3.9D-13, -1.8D-01, r^2= 1.0D+01
   Bfn.  Coefficient  Atom+Function         Bfn.  Coefficient  Atom+Function  
  ----- ------------  ---------------      ----- ------------  ---------------
    42      5.816701   2 C  s               149     -5.816701   4 C  s         
   684     -5.816701  14 C  s               791      5.816701  16 C  s         
    53      5.332766   2 C  py              160      5.332766   4 C  py        
   695     -5.332766  14 C  py              802     -5.332766  16 C  py        
   266      4.688716   6 C  px              373     -4.688716   8 C  px        

 Vector   59  Occ=0.000000D+00  E= 2.754320D-01  Symmetry=a1
              MO Center=  6.5D-13, -2.7D-13, -4.8D-01, r^2= 1.2D+01
   Bfn.  Coefficient  Atom+Function         Bfn.  Coefficient  Atom+Function  
  ----- ------------  ---------------      ----- ------------  ---------------
   268      7.647028   6 C  pz              375      7.647028   8 C  pz        
   218      7.403179   5 H  s               325      7.403179   7 H  s         
   470     -6.459564  10 C  s               577     -6.459564  12 C  s         
   256     -2.763290   6 C  s               363     -2.763290   8 C  s         
   482      2.322897  10 C  pz              589      2.322897  12 C  pz        

 Vector   60  Occ=0.000000D+00  E= 2.913122D-01  Symmetry=a2
              MO Center=  1.4D-12,  1.9D-14, -2.4D-01, r^2= 1.0D+01
   Bfn.  Coefficient  Atom+Function         Bfn.  Coefficient  Atom+Function  
  ----- ------------  ---------------      ----- ------------  ---------------
    42      7.940224   2 C  s               149     -7.940224   4 C  s         
   684     -7.940224  14 C  s               791      7.940224  16 C  s         
    54     -4.283894   2 C  pz              161      4.283894   4 C  pz        
   696      4.283894  14 C  pz              803     -4.283894  16 C  pz        
   266     -3.883241   6 C  px              373      3.883241   8 C  px        

 Vector   61  Occ=0.000000D+00  E= 2.931110D-01  Symmetry=b2
              MO Center= -3.8D-13,  4.5D-11, -1.1D+00, r^2= 1.2D+01
   Bfn.  Coefficient  Atom+Function         Bfn.  Coefficient  Atom+Function  
  ----- ------------  ---------------      ----- ------------  ---------------
   256      8.182263   6 C  s               363     -8.182263   8 C  s         
   218     -6.817037   5 H  s               325      6.817037   7 H  s         
   482      6.373703  10 C  pz              589     -6.373703  12 C  pz        
   432     -6.151607   9 H  s               539      6.151607  11 H  s         
   268     -5.952145   6 C  pz              375      5.952145   8 C  pz        

 Vector   62  Occ=0.000000D+00  E= 2.946926D-01  Symmetry=a1
              MO Center=  1.2D-14, -4.1D-11, -3.3D-01, r^2= 1.1D+01
   Bfn.  Coefficient  Atom+Function         Bfn.  Coefficient  Atom+Function  
  ----- ------------  ---------------      ----- ------------  ---------------
   470      5.527409  10 C  s               577      5.527409  12 C  s         
   217      4.897670   5 H  s               324      4.897670   7 H  s         
   432     -4.556729   9 H  s               539     -4.556729  11 H  s         
   256      4.307008   6 C  s               363      4.307008   8 C  s         
   481     -4.064389  10 C  py              588      4.064389  12 C  py        

 Vector   63  Occ=0.000000D+00  E= 2.965804D-01  Symmetry=b1
              MO Center= -6.2D-12, -2.1D-11, -7.9D-02, r^2= 1.4D+01
   Bfn.  Coefficient  Atom+Function         Bfn.  Coefficient  Atom+Function  
  ----- ------------  ---------------      ----- ------------  ---------------
     4      7.143315   1 H  s               111      7.143315   3 H  s         
   646     -7.143315  13 H  s               753     -7.143315  15 H  s         
    52     -6.199624   2 C  px              159     -6.199624   4 C  px        
   694     -6.199624  14 C  px              801     -6.199624  16 C  px        
    42     -4.736915   2 C  s               149     -4.736915   4 C  s         

 Vector   64  Occ=0.000000D+00  E= 2.982709D-01  Symmetry=b2
              MO Center= -5.9D-12, -9.1D-13,  6.7D-01, r^2= 1.3D+01
   Bfn.  Coefficient  Atom+Function         Bfn.  Coefficient  Atom+Function  
  ----- ------------  ---------------      ----- ------------  ---------------
   432      5.934712   9 H  s               539     -5.934712  11 H  s         
    52     -5.258896   2 C  px              159      5.258896   4 C  px        
   694      5.258896  14 C  px              801     -5.258896  16 C  px        
     4      5.181143   1 H  s               111     -5.181143   3 H  s         
   646      5.181143  13 H  s               753     -5.181143  15 H  s         

 Vector   65  Occ=0.000000D+00  E= 3.032307D-01  Symmetry=a1
              MO Center=  8.9D-13, -5.2D-12, -1.4D+00, r^2= 1.0D+01
   Bfn.  Coefficient  Atom+Function         Bfn.  Coefficient  Atom+Function  
  ----- ------------  ---------------      ----- ------------  ---------------
   470      7.733724  10 C  s               577      7.733724  12 C  s         
   218      5.295860   5 H  s               325      5.295860   7 H  s         
   268      4.215683   6 C  pz              375      4.215683   8 C  pz        
    52      4.120676   2 C  px              159      4.120676   4 C  px        
   256     -4.132238   6 C  s               363     -4.132238   8 C  s         

 Vector   66  Occ=0.000000D+00  E= 3.091641D-01  Symmetry=b1
              MO Center= -1.1D-12,  6.6D-13, -6.4D-01, r^2= 9.3D+00
   Bfn.  Coefficient  Atom+Function         Bfn.  Coefficient  Atom+Function  
  ----- ------------  ---------------      ----- ------------  ---------------
   266      4.138392   6 C  px              373      4.138392   8 C  px        
    54      2.773840   2 C  pz              161      2.773840   4 C  pz        
   696     -2.773840  14 C  pz              803     -2.773840  16 C  pz        
   263     -2.378713   6 C  px              370     -2.378713   8 C  px        
     3      2.143783   1 H  s               110      2.143783   3 H  s         

 Vector   67  Occ=0.000000D+00  E= 3.119410D-01  Symmetry=a1
              MO Center=  7.2D-12, -5.4D-12,  9.6D-01, r^2= 1.1D+01
   Bfn.  Coefficient  Atom+Function         Bfn.  Coefficient  Atom+Function  
  ----- ------------  ---------------      ----- ------------  ---------------
   432      6.213582   9 H  s               539      6.213582  11 H  s         
   431     -5.264051   9 H  s               538     -5.264051  11 H  s         
     4     -4.366105   1 H  s               111     -4.366105   3 H  s         
   646     -4.366105  13 H  s               753     -4.366105  15 H  s         
   481      4.229564  10 C  py              588     -4.229564  12 C  py        

 Vector   68  Occ=0.000000D+00  E= 3.130813D-01  Symmetry=a2
              MO Center= -3.0D-12,  1.4D-11,  2.7D-01, r^2= 1.1D+01
   Bfn.  Coefficient  Atom+Function         Bfn.  Coefficient  Atom+Function  
  ----- ------------  ---------------      ----- ------------  ---------------
   480      5.579695  10 C  px              587     -5.579695  12 C  px        
    42     -4.824738   2 C  s               149      4.824738   4 C  s         
   684      4.824738  14 C  s               791     -4.824738  16 C  s         
    53      3.380930   2 C  py              160      3.380930   4 C  py        
   695     -3.380930  14 C  py              802     -3.380930  16 C  py        

 Vector   69  Occ=0.000000D+00  E= 3.144540D-01  Symmetry=b2
              MO Center=  2.2D-11,  1.1D-11,  7.6D-01, r^2= 1.3D+01
   Bfn.  Coefficient  Atom+Function         Bfn.  Coefficient  Atom+Function  
  ----- ------------  ---------------      ----- ------------  ---------------
   256      7.305110   6 C  s               363     -7.305110   8 C  s         
   432      6.366021   9 H  s               539     -6.366021  11 H  s         
     4     -5.711184   1 H  s               111      5.711184   3 H  s         
   646     -5.711184  13 H  s               753      5.711184  15 H  s         
    52      5.583653   2 C  px              159     -5.583653   4 C  px        

 Vector   70  Occ=0.000000D+00  E= 3.209038D-01  Symmetry=b2
              MO Center= -3.1D-12,  2.7D-12,  4.9D-01, r^2= 1.0D+01
   Bfn.  Coefficient  Atom+Function         Bfn.  Coefficient  Atom+Function  
  ----- ------------  ---------------      ----- ------------  ---------------
   482      7.906087  10 C  pz              589     -7.906087  12 C  pz        
   432     -6.184202   9 H  s               539      6.184202  11 H  s         
    52      3.759146   2 C  px              159     -3.759146   4 C  px        
   694     -3.759146  14 C  px              801      3.759146  16 C  px        
   256      2.704285   6 C  s               363     -2.704285   8 C  s         

 Vector   71  Occ=0.000000D+00  E= 3.348745D-01  Symmetry=b2
              MO Center= -3.4D-12, -1.7D-11,  5.2D-02, r^2= 1.3D+01
   Bfn.  Coefficient  Atom+Function         Bfn.  Coefficient  Atom+Function  
  ----- ------------  ---------------      ----- ------------  ---------------
   482     10.157385  10 C  pz              589    -10.157385  12 C  pz        
   268      9.955141   6 C  pz              375     -9.955141   8 C  pz        
   218      8.499597   5 H  s               325     -8.499597   7 H  s         
   432     -5.038297   9 H  s               539      5.038297  11 H  s         
    52     -4.540778   2 C  px              159      4.540778   4 C  px        

 Vector   72  Occ=0.000000D+00  E= 3.406974D-01  Symmetry=b1
              MO Center= -4.6D-13, -3.5D-12, -4.3D-01, r^2= 9.5D+00
   Bfn.  Coefficient  Atom+Function         Bfn.  Coefficient  Atom+Function  
  ----- ------------  ---------------      ----- ------------  ---------------
    52      5.977257   2 C  px              159      5.977257   4 C  px        
   694      5.977257  14 C  px              801      5.977257  16 C  px        
[...]
   18 Stretch                 14    16                       1.62517    0.00039
   19 Stretch                 15    16                       1.08719   -0.00165
   20 Bend                     1     2     4               115.64149   -0.01639
   21 Bend                     1     2     6               122.35297    0.00551
   22 Bend                     1     2    10               125.15079    0.01435
   23 Bend                     2     4     3               115.64149   -0.01639
   24 Bend                     2     4     8               109.95377    0.00353
   25 Bend                     2     4    12                88.45753   -0.00276
   26 Bend                     2     6     5               132.76852   -0.00690
   27 Bend                     2     6    14                91.25298    0.01626
   28 Bend                     2    10     9               124.06260    0.00362
   29 Bend                     2    10    12                91.54247    0.00276
   30 Bend                     2    10    14                85.82455   -0.01688
   31 Bend                     3     4     8               122.35297    0.00551
   32 Bend                     3     4    12               125.15079    0.01435
   33 Bend                     4     2     6               109.95377    0.00353
   34 Bend                     4     2    10                88.45753   -0.00276
   35 Bend                     4     8     7               132.76852   -0.00690
   36 Bend                     4     8    16                91.25298    0.01626
   37 Bend                     4    12    10                91.54247    0.00276
   38 Bend                     4    12    11               124.06260    0.00362
   39 Bend                     4    12    16                85.82455   -0.01688
   40 Bend                     5     6    14               132.76852   -0.00690
   41 Bend                     6     2    10                88.23855   -0.00120
   42 Bend                     6    14    10                88.23855   -0.00120
   43 Bend                     6    14    13               122.35297    0.00551
   44 Bend                     6    14    16               109.95377    0.00353
   45 Bend                     7     8    16               132.76852   -0.00690
   46 Bend                     8     4    12                88.23855   -0.00120
   47 Bend                     8    16    12                88.23855   -0.00120
   48 Bend                     8    16    14               109.95377    0.00353
   49 Bend                     8    16    15               122.35297    0.00551
   50 Bend                     9    10    12               128.00925   -0.00052
   51 Bend                     9    10    14               124.06260    0.00362
   52 Bend                    10    12    11               128.00925   -0.00052
   53 Bend                    10    12    16                91.54247    0.00276
   54 Bend                    10    14    13               125.15079    0.01435
   55 Bend                    10    14    16                88.45753   -0.00276
   56 Bend                    11    12    16               124.06260    0.00362
   57 Bend                    12    10    14                91.54247    0.00276
   58 Bend                    12    16    14                88.45753   -0.00276
   59 Bend                    12    16    15               125.15079    0.01435
   60 Bend                    13    14    16               115.64149   -0.01639
   61 Bend                    14    16    15               115.64149   -0.01639
   62 Torsion                  1     2     4     3           0.00000    0.00000
   63 Torsion                  1     2     4     8         143.68486   -0.00686
   64 Torsion                  1     2     4    12        -128.75035   -0.00930
   65 Torsion                  1     2     6     5         -48.03208    0.03479
   66 Torsion                  1     2     6    14         150.98124    0.02777
   67 Torsion                  1     2    10     9         -18.92692   -0.02292
   68 Torsion                  1     2    10    12         120.69612   -0.01769
   69 Torsion                  1     2    10    14        -147.86942   -0.01554
   70 Torsion                  2     4     8     7         -92.76919   -0.01792
   71 Torsion                  2     4     8    16          68.21750   -0.01090
   72 Torsion                  2     4    12    10           0.00000    0.00000
   73 Torsion                  2     4    12    11         139.62304    0.00523
   74 Torsion                  2     4    12    16         -91.43446   -0.00215
   75 Torsion                  2     6    14    10         -19.50064   -0.00736
   76 Torsion                  2     6    14    13        -150.98124   -0.02777
   77 Torsion                  2     6    14    16          68.21750   -0.01090
   78 Torsion                  2    10    12     4           0.00000    0.00000
   79 Torsion                  2    10    12    11        -137.06842   -0.00838
   80 Torsion                  2    10    12    16          85.86317   -0.01675
   81 Torsion                  2    10    14     6          18.58717    0.00156
   82 Torsion                  2    10    14    13         147.86942    0.01554
   83 Torsion                  2    10    14    16         -91.43446   -0.00215
   84 Torsion                  3     4     2     6        -143.68486    0.00686
   85 Torsion                  3     4     2    10         128.75035    0.00930
   86 Torsion                  3     4     8     7          48.03208   -0.03479
   87 Torsion                  3     4     8    16        -150.98124   -0.02777
   88 Torsion                  3     4    12    10        -120.69612    0.01769
   89 Torsion                  3     4    12    11          18.92692    0.02292
   90 Torsion                  3     4    12    16         147.86942    0.01554
   91 Torsion                  4     2     6     5          92.76919    0.01792
   92 Torsion                  4     2     6    14         -68.21750    0.01090
   93 Torsion                  4     2    10     9        -139.62304   -0.00523
   94 Torsion                  4     2    10    12           0.00000    0.00000
   95 Torsion                  4     2    10    14          91.43446    0.00215
   96 Torsion                  4     8    16    12          19.50064    0.00736
   97 Torsion                  4     8    16    14         -68.21750    0.01090
   98 Torsion                  4     8    16    15         150.98124    0.02777
   99 Torsion                  4    12    10     9         137.06842    0.00838
  100 Torsion                  4    12    10    14         -85.86317    0.01675
  101 Torsion                  4    12    16     8         -18.58717   -0.00156
  102 Torsion                  4    12    16    14          91.43446    0.00215
  103 Torsion                  4    12    16    15        -147.86942   -0.01554
  104 Torsion                  5     6     2    10        -179.51268    0.01438
  105 Torsion                  5     6    14    10         179.51268   -0.01438
  106 Torsion                  5     6    14    13          48.03208   -0.03479
  107 Torsion                  5     6    14    16         -92.76919   -0.01792
  108 Torsion                  6     2     4     8           0.00000    0.00000
  109 Torsion                  6     2     4    12          87.56480   -0.00244
  110 Torsion                  6     2    10     9         110.35533   -0.00893
  111 Torsion                  6     2    10    12        -110.02164   -0.00370
  112 Torsion                  6     2    10    14         -18.58717   -0.00156
  113 Torsion                  6    14    10     9        -110.35533    0.00893
  114 Torsion                  6    14    10    12         110.02164    0.00370
  115 Torsion                  6    14    16     8           0.00000    0.00000
  116 Torsion                  6    14    16    12         -87.56480    0.00244
  117 Torsion                  6    14    16    15         143.68486   -0.00686
  118 Torsion                  7     8     4    12         179.51268   -0.01438
  119 Torsion                  7     8    16    12        -179.51268    0.01438
  120 Torsion                  7     8    16    14          92.76919    0.01792
  121 Torsion                  7     8    16    15         -48.03208    0.03479
  122 Torsion                  8     4     2    10         -87.56480    0.00244
  123 Torsion                  8     4    12    10         110.02164    0.00370
  124 Torsion                  8     4    12    11        -110.35533    0.00893
  125 Torsion                  8     4    12    16          18.58717    0.00156
  126 Torsion                  8    16    12    10        -110.02164   -0.00370
  127 Torsion                  8    16    12    11         110.35533   -0.00893
  128 Torsion                  8    16    14    10          87.56480   -0.00244
  129 Torsion                  8    16    14    13        -143.68486    0.00686
  130 Torsion                  9    10    12    11           0.00000    0.00000
  131 Torsion                  9    10    12    16        -137.06842   -0.00838
  132 Torsion                  9    10    14    13          18.92692    0.02292
  133 Torsion                  9    10    14    16         139.62304    0.00523
  134 Torsion                 10     2     4    12           0.00000    0.00000
  135 Torsion                 10     2     6    14          19.50064    0.00736
  136 Torsion                 10    12    16    14           0.00000    0.00000
  137 Torsion                 10    12    16    15         120.69612   -0.01769
  138 Torsion                 10    14    16    12           0.00000    0.00000
  139 Torsion                 10    14    16    15        -128.75035   -0.00930
  140 Torsion                 11    12    10    14         137.06842    0.00838
  141 Torsion                 11    12    16    14        -139.62304   -0.00523
  142 Torsion                 11    12    16    15         -18.92692   -0.02292
  143 Torsion                 12     4     8    16         -19.50064   -0.00736
  144 Torsion                 12    10    14    13        -120.69612    0.01769
  145 Torsion                 12    10    14    16          -0.00000    0.00000
  146 Torsion                 12    16    14    13         128.75035    0.00930
  147 Torsion                 13    14    16    15           0.00000    0.00000
  148 Torsion                 14    10    12    16           0.00000    0.00000

 ==============================================================================
                                internuclear distances
 ------------------------------------------------------------------------------
       center one      |      center two      | atomic units |  angstroms
 ------------------------------------------------------------------------------
    2 C                |   1 H                |     2.05449  |     1.08719
    4 C                |   2 C                |     3.07113  |     1.62517
    4 C                |   3 H                |     2.05449  |     1.08719
    6 C                |   2 C                |     2.82879  |     1.49693
    6 C                |   5 H                |     2.04444  |     1.08187
    8 C                |   4 C                |     2.82879  |     1.49693
    8 C                |   7 H                |     2.04444  |     1.08187
   10 C                |   2 C                |     2.96971  |     1.57150
   10 C                |   9 H                |     2.05014  |     1.08489
   12 C                |   4 C                |     2.96971  |     1.57150
   12 C                |  10 C                |     2.91126  |     1.54057
   12 C                |  11 H                |     2.05014  |     1.08489
   14 C                |   6 C                |     2.82879  |     1.49693
   14 C                |  10 C                |     2.96971  |     1.57150
   14 C                |  13 H                |     2.05449  |     1.08719
   16 C                |   8 C                |     2.82879  |     1.49693
   16 C                |  12 C                |     2.96971  |     1.57150
   16 C                |  14 C                |     3.07113  |     1.62517
   16 C                |  15 H                |     2.05449  |     1.08719
 ------------------------------------------------------------------------------
                         number of included internuclear distances:         19
 ==============================================================================



 ==============================================================================
                                 internuclear angles
 ------------------------------------------------------------------------------
        center 1       |       center 2       |       center 3       |  degrees
 ------------------------------------------------------------------------------
    1 H                |   2 C                |   4 C                |   115.64
    1 H                |   2 C                |   6 C                |   122.35
    1 H                |   2 C                |  10 C                |   125.15
    4 C                |   2 C                |   6 C                |   109.95
    4 C                |   2 C                |  10 C                |    88.46
    6 C                |   2 C                |  10 C                |    88.24
    2 C                |   4 C                |   3 H                |   115.64
    2 C                |   4 C                |   8 C                |   109.95
    2 C                |   4 C                |  12 C                |    88.46
    3 H                |   4 C                |   8 C                |   122.35
    3 H                |   4 C                |  12 C                |   125.15
    8 C                |   4 C                |  12 C                |    88.24
    2 C                |   6 C                |   5 H                |   132.77
    2 C                |   6 C                |  14 C                |    91.25
    5 H                |   6 C                |  14 C                |   132.77
    4 C                |   8 C                |   7 H                |   132.77
    4 C                |   8 C                |  16 C                |    91.25
    7 H                |   8 C                |  16 C                |   132.77
    2 C                |  10 C                |   9 H                |   124.06
    2 C                |  10 C                |  12 C                |    91.54
    2 C                |  10 C                |  14 C                |    85.82
    9 H                |  10 C                |  12 C                |   128.01
    9 H                |  10 C                |  14 C                |   124.06
   12 C                |  10 C                |  14 C                |    91.54
    4 C                |  12 C                |  10 C                |    91.54
    4 C                |  12 C                |  11 H                |   124.06
    4 C                |  12 C                |  16 C                |    85.82
   10 C                |  12 C                |  11 H                |   128.01
   10 C                |  12 C                |  16 C                |    91.54
   11 H                |  12 C                |  16 C                |   124.06
    6 C                |  14 C                |  10 C                |    88.24
    6 C                |  14 C                |  13 H                |   122.35
    6 C                |  14 C                |  16 C                |   109.95
   10 C                |  14 C                |  13 H                |   125.15
   10 C                |  14 C                |  16 C                |    88.46
   13 H                |  14 C                |  16 C                |   115.64
    8 C                |  16 C                |  12 C                |    88.24
    8 C                |  16 C                |  14 C                |   109.95
    8 C                |  16 C                |  15 H                |   122.35
   12 C                |  16 C                |  14 C                |    88.46
   12 C                |  16 C                |  15 H                |   125.15
   14 C                |  16 C                |  15 H                |   115.64
 ------------------------------------------------------------------------------
                            number of included internuclear angles:         42
 ==============================================================================




 Task  times  cpu:    10197.5s     wall:    11570.6s
 Summary of allocated global arrays
-----------------------------------
  No active global arrays



                         GA Statistics for process    0
                         ------------------------------

       create   destroy   get      put      acc     scatter   gather  read&inc
calls: 1447     1447     7.03e+06 6.29e+05 4.62e+05    0        0     3.62e+04 
number of processes/call 1.00e+00 1.00e+00 1.00e+00 0.00e+00 0.00e+00
bytes total:             5.27e+10 7.29e+09 1.98e+10 0.00e+00 0.00e+00 2.89e+05
bytes remote:            0.00e+00 0.00e+00 0.00e+00 0.00e+00 0.00e+00 0.00e+00
Max memory consumed for GA by this process: 368997632 bytes
MA_summarize_allocated_blocks: starting scan ...
MA_summarize_allocated_blocks: scan completed: 0 heap blocks, 0 stack blocks
MA usage statistics:

	allocation statistics:
					      heap	     stack
					      ----	     -----
	current number of blocks	         0	         0
	maximum number of blocks	        26	        55
	current total bytes		         0	         0
	maximum total bytes		   5702408	 101714840
	maximum total K-bytes		      5703	    101715
	maximum total M-bytes		         6	       102


                                NWChem Input Module
                                -------------------





                                     CITATION
                                     --------
                Please cite the following reference when publishing
                           results obtained with NWChem:

                 M. Valiev, E.J. Bylaska, N. Govind, K. Kowalski,
              T.P. Straatsma, H.J.J. van Dam, D. Wang, J. Nieplocha,
                        E. Apra, T.L. Windus, W.A. de Jong
                 "NWChem: a comprehensive and scalable open-source
                  solution for large scale molecular simulations"
                      Comput. Phys. Commun. 181, 1477 (2010)
                           doi:10.1016/j.cpc.2010.04.018

                                      AUTHORS
                                      -------
          E. Apra, E. J. Bylaska, W. A. de Jong, N. Govind, K. Kowalski,
       T. P. Straatsma, M. Valiev, H. J. J. van Dam, D. Wang, T. L. Windus,
        J. Hammond, J. Autschbach, K. Bhaskaran-Nair, J. Brabec, K. Lopata,
       S. A. Fischer, S. Krishnamoorthy, W. Ma, M. Klemm, O. Villa, Y. Chen,
    V. Anisimov, F. Aquino, S. Hirata, M. T. Hackler, T. Risthaus, M. Malagoli,
       A. Marenich, A. Otero-de-la-Roza, J. Mullin, P. Nichols, R. Peverati,
     J. Pittner, Y. Zhao, P.-D. Fan, A. Fonari, M. Williamson, R. J. Harrison,
       J. R. Rehr, M. Dupuis, D. Silverstein, D. M. A. Smith, J. Nieplocha,
        V. Tipparaju, M. Krishnan, B. E. Van Kuiken, A. Vazquez-Mayagoitia,
        L. Jensen, M. Swart, Q. Wu, T. Van Voorhis, A. A. Auer, M. Nooijen,
      L. D. Crosby, E. Brown, G. Cisneros, G. I. Fann, H. Fruchtl, J. Garza,
        K. Hirao, R. A. Kendall, J. A. Nichols, K. Tsemekhman, K. Wolinski,
     J. Anchell, D. E. Bernholdt, P. Borowski, T. Clark, D. Clerc, H. Dachsel,
   M. J. O. Deegan, K. Dyall, D. Elwood, E. Glendening, M. Gutowski, A. C. Hess,
         J. Jaffe, B. G. Johnson, J. Ju, R. Kobayashi, R. Kutteh, Z. Lin,
   R. Littlefield, X. Long, B. Meng, T. Nakajima, S. Niu, L. Pollack, M. Rosing,
   K. Glaesemann, G. Sandrone, M. Stave, H. Taylor, G. Thomas, J. H. van Lenthe,
                               A. T. Wong, Z. Zhang.

 Total times  cpu:    10197.6s     wall:    11570.7s
