 argument  1 = cubane.nw
                                         
                                         


              Northwest Computational Chemistry Package (NWChem) 6.5
              ------------------------------------------------------


                    Environmental Molecular Sciences Laboratory
                       Pacific Northwest National Laboratory
                                Richland, WA 99352

                              Copyright (c) 1994-2013
                       Pacific Northwest National Laboratory
                            Battelle Memorial Institute

             NWChem is an open-source computational chemistry package
                        distributed under the terms of the
                      Educational Community License (ECL) 2.0
             A copy of the license is included with this distribution
                              in the LICENSE.TXT file

                                  ACKNOWLEDGMENT
                                  --------------

            This software and its documentation were developed at the
            EMSL at Pacific Northwest National Laboratory, a multiprogram
            national laboratory, operated for the U.S. Department of Energy
            by Battelle under Contract Number DE-AC05-76RL01830. Support
            for this work was provided by the Department of Energy Office
            of Biological and Environmental Research, Office of Basic
            Energy Sciences, and the Office of Advanced Scientific Computing.


           Job information
           ---------------

    hostname        = kbob-G41MT-S2
    program         = nwchem
    date            = Mon Mar  9 14:38:44 2015

    compiled        = Пн._марта_09_12:30:26_2015
    source          = /opt/Nwchem-dev.revision26871-src.2015-02-24
    nwchem branch   = Development
    nwchem revision = 26871
    ga revision     = 10520
    input           = cubane.nw
    prefix          = cubane.
    data base       = ./cubane.db
    status          = startup
    nproc           =        1
    time left       =     -1s



           Memory information
           ------------------

    heap     =   63211008 doubles =    482.3 Mbytes
    stack    =   63211005 doubles =    482.3 Mbytes
    global   =  126422016 doubles =    964.5 Mbytes (distinct from heap & stack)
    total    =  252844029 doubles =   1929.0 Mbytes
    verify   = yes
    hardfail = no 


           Directory information
           ---------------------

  0 permanent = .
  0 scratch   = .




                                NWChem Input Module
                                -------------------


                    cubane HF/def2-QZVPP geometry optimization
                    ------------------------------------------

 Scaling coordinates for geometry "geometry" by  1.889725989
 (inverse scale =  0.529177249)

 Turning off AUTOSYM since
 SYMMETRY directive was detected!


          ------
          auto-z
          ------


                             Geometry "geometry" -> ""
                             -------------------------

 Output coordinates in angstroms (scale by  1.889725989 to convert to a.u.)

  No.       Tag          Charge          X              Y              Z
 ---- ---------------- ---------- -------------- -------------- --------------
    1 H                    1.0000     1.40081689     1.40081689     1.40081689
    2 H                    1.0000    -1.40081689    -1.40081689     1.40081689
    3 H                    1.0000    -1.40081689     1.40081689    -1.40081689
    4 H                    1.0000     1.40081689    -1.40081689    -1.40081689
    5 H                    1.0000     1.40081689     1.40081689    -1.40081689
    6 H                    1.0000    -1.40081689    -1.40081689    -1.40081689
    7 H                    1.0000     1.40081689    -1.40081689     1.40081689
    8 H                    1.0000    -1.40081689     1.40081689     1.40081689
    9 C                    6.0000     0.77853005     0.77853005     0.77853005
   10 C                    6.0000    -0.77853005    -0.77853005     0.77853005
   11 C                    6.0000    -0.77853005     0.77853005    -0.77853005
   12 C                    6.0000     0.77853005    -0.77853005    -0.77853005
   13 C                    6.0000     0.77853005     0.77853005    -0.77853005
   14 C                    6.0000    -0.77853005    -0.77853005    -0.77853005
   15 C                    6.0000     0.77853005    -0.77853005     0.77853005
   16 C                    6.0000    -0.77853005     0.77853005     0.77853005

      Atomic Mass 
      ----------- 

      H                  1.007825
      C                 12.000000


 Effective nuclear repulsion energy (a.u.)     370.1469751218

            Nuclear Dipole moment (a.u.) 
            ----------------------------
        X                 Y               Z
 ---------------- ---------------- ----------------
     0.0000000000     0.0000000000     0.0000000000

      Symmetry information
      --------------------

 Group name              Oh       
 Group number             44
 Group order              48
 No. of unique centers     2

      Symmetry unique atoms

     1    9



                                Z-matrix (autoz)
                                -------- 

 Units are Angstrom for bonds and degrees for angles

      Type          Name      I     J     K     L     M      Value
      ----------- --------  ----- ----- ----- ----- ----- ----------
    1 Stretch                  1     9                       1.07783
    2 Stretch                  2    10                       1.07783
    3 Stretch                  3    11                       1.07783
    4 Stretch                  4    12                       1.07783
    5 Stretch                  5    13                       1.07783
    6 Stretch                  6    14                       1.07783
    7 Stretch                  7    15                       1.07783
    8 Stretch                  8    16                       1.07783
    9 Stretch                  9    13                       1.55706
   10 Stretch                  9    15                       1.55706
   11 Stretch                  9    16                       1.55706
   12 Stretch                 10    14                       1.55706
   13 Stretch                 10    15                       1.55706
   14 Stretch                 10    16                       1.55706
   15 Stretch                 11    13                       1.55706
   16 Stretch                 11    14                       1.55706
   17 Stretch                 11    16                       1.55706
   18 Stretch                 12    13                       1.55706
   19 Stretch                 12    14                       1.55706
   20 Stretch                 12    15                       1.55706
   21 Bend                     1     9    13               125.26439
   22 Bend                     1     9    15               125.26439
   23 Bend                     1     9    16               125.26439
   24 Bend                     2    10    14               125.26439
   25 Bend                     2    10    15               125.26439
   26 Bend                     2    10    16               125.26439
   27 Bend                     3    11    13               125.26439
   28 Bend                     3    11    14               125.26439
   29 Bend                     3    11    16               125.26439
   30 Bend                     4    12    13               125.26439
   31 Bend                     4    12    14               125.26439
   32 Bend                     4    12    15               125.26439
   33 Bend                     5    13     9               125.26439
   34 Bend                     5    13    11               125.26439
   35 Bend                     5    13    12               125.26439
   36 Bend                     6    14    10               125.26439
   37 Bend                     6    14    11               125.26439
   38 Bend                     6    14    12               125.26439
   39 Bend                     7    15     9               125.26439
   40 Bend                     7    15    10               125.26439
   41 Bend                     7    15    12               125.26439
   42 Bend                     8    16     9               125.26439
   43 Bend                     8    16    10               125.26439
   44 Bend                     8    16    11               125.26439
   45 Bend                     9    13    11                90.00000
   46 Bend                     9    13    12                90.00000
   47 Bend                     9    15    10                90.00000
   48 Bend                     9    15    12                90.00000
   49 Bend                     9    16    10                90.00000
   50 Bend                     9    16    11                90.00000
   51 Bend                    10    14    11                90.00000
   52 Bend                    10    14    12                90.00000
   53 Bend                    10    15    12                90.00000
   54 Bend                    10    16    11                90.00000
   55 Bend                    11    13    12                90.00000
   56 Bend                    11    14    12                90.00000
   57 Bend                    13     9    15                90.00000
   58 Bend                    13     9    16                90.00000
   59 Bend                    13    11    14                90.00000
   60 Bend                    13    11    16                90.00000
   61 Bend                    13    12    14                90.00000
   62 Bend                    13    12    15                90.00000
   63 Bend                    14    10    15                90.00000
   64 Bend                    14    10    16                90.00000
   65 Bend                    14    11    16                90.00000
   66 Bend                    14    12    15                90.00000
   67 Bend                    15     9    16                90.00000
   68 Bend                    15    10    16                90.00000
   69 Torsion                  1     9    13     5           0.00000
   70 Torsion                  1     9    13    11        -135.00000
   71 Torsion                  1     9    13    12         135.00000
   72 Torsion                  1     9    15     7           0.00000
   73 Torsion                  1     9    15    10         135.00000
   74 Torsion                  1     9    15    12        -135.00000
   75 Torsion                  1     9    16     8           0.00000
   76 Torsion                  1     9    16    10        -135.00000
   77 Torsion                  1     9    16    11         135.00000
   78 Torsion                  2    10    14     6           0.00000
   79 Torsion                  2    10    14    11         135.00000
   80 Torsion                  2    10    14    12        -135.00000
   81 Torsion                  2    10    15     7           0.00000
   82 Torsion                  2    10    15     9        -135.00000
   83 Torsion                  2    10    15    12         135.00000
   84 Torsion                  2    10    16     8           0.00000
   85 Torsion                  2    10    16     9         135.00000
   86 Torsion                  2    10    16    11        -135.00000
   87 Torsion                  3    11    13     5           0.00000
   88 Torsion                  3    11    13     9         135.00000
   89 Torsion                  3    11    13    12        -135.00000
   90 Torsion                  3    11    14     6           0.00000
   91 Torsion                  3    11    14    10        -135.00000
   92 Torsion                  3    11    14    12         135.00000
   93 Torsion                  3    11    16     8           0.00000
   94 Torsion                  3    11    16     9        -135.00000
   95 Torsion                  3    11    16    10         135.00000
   96 Torsion                  4    12    13     5           0.00000
   97 Torsion                  4    12    13     9        -135.00000
   98 Torsion                  4    12    13    11         135.00000
   99 Torsion                  4    12    14     6           0.00000
  100 Torsion                  4    12    14    10         135.00000
  101 Torsion                  4    12    14    11        -135.00000
  102 Torsion                  4    12    15     7           0.00000
  103 Torsion                  4    12    15     9         135.00000
  104 Torsion                  4    12    15    10        -135.00000
  105 Torsion                  5    13     9    15        -135.00000
  106 Torsion                  5    13     9    16         135.00000
  107 Torsion                  5    13    11    14         135.00000
  108 Torsion                  5    13    11    16        -135.00000
  109 Torsion                  5    13    12    14        -135.00000
  110 Torsion                  5    13    12    15         135.00000
  111 Torsion                  6    14    10    15         135.00000
  112 Torsion                  6    14    10    16        -135.00000
  113 Torsion                  6    14    11    13        -135.00000
  114 Torsion                  6    14    11    16         135.00000
  115 Torsion                  6    14    12    13         135.00000
  116 Torsion                  6    14    12    15        -135.00000
  117 Torsion                  7    15     9    13         135.00000
  118 Torsion                  7    15     9    16        -135.00000
  119 Torsion                  7    15    10    14        -135.00000
  120 Torsion                  7    15    10    16         135.00000
  121 Torsion                  7    15    12    13        -135.00000
  122 Torsion                  7    15    12    14         135.00000
  123 Torsion                  8    16     9    13        -135.00000
  124 Torsion                  8    16     9    15         135.00000
  125 Torsion                  8    16    10    14         135.00000
  126 Torsion                  8    16    10    15        -135.00000
  127 Torsion                  8    16    11    13         135.00000
  128 Torsion                  8    16    11    14        -135.00000
  129 Torsion                  9    13    11    14         -90.00000
  130 Torsion                  9    13    11    16           0.00000
  131 Torsion                  9    13    12    14          90.00000
  132 Torsion                  9    13    12    15           0.00000
  133 Torsion                  9    15    10    14          90.00000
  134 Torsion                  9    15    10    16           0.00000
  135 Torsion                  9    15    12    13           0.00000
  136 Torsion                  9    15    12    14         -90.00000
  137 Torsion                  9    16    10    14         -90.00000
  138 Torsion                  9    16    10    15           0.00000
  139 Torsion                  9    16    11    13           0.00000
  140 Torsion                  9    16    11    14          90.00000
  141 Torsion                 10    14    11    13          90.00000
  142 Torsion                 10    14    11    16           0.00000
  143 Torsion                 10    14    12    13         -90.00000
  144 Torsion                 10    14    12    15           0.00000
  145 Torsion                 10    15     9    13         -90.00000
  146 Torsion                 10    15     9    16           0.00000
  147 Torsion                 10    15    12    13          90.00000
  148 Torsion                 10    15    12    14           0.00000
  149 Torsion                 10    16     9    13          90.00000
  150 Torsion                 10    16     9    15           0.00000
  151 Torsion                 10    16    11    13         -90.00000
  152 Torsion                 10    16    11    14           0.00000
  153 Torsion                 11    13     9    15          90.00000
  154 Torsion                 11    13     9    16           0.00000
  155 Torsion                 11    13    12    14           0.00000
  156 Torsion                 11    13    12    15         -90.00000
  157 Torsion                 11    14    10    15         -90.00000
  158 Torsion                 11    14    10    16           0.00000
  159 Torsion                 11    14    12    13           0.00000
  160 Torsion                 11    14    12    15          90.00000
  161 Torsion                 11    16     9    13           0.00000
  162 Torsion                 11    16     9    15         -90.00000
  163 Torsion                 11    16    10    14           0.00000
  164 Torsion                 11    16    10    15          90.00000
  165 Torsion                 12    13     9    15           0.00000
  166 Torsion                 12    13     9    16         -90.00000
  167 Torsion                 12    13    11    14           0.00000
  168 Torsion                 12    13    11    16          90.00000
  169 Torsion                 12    14    10    15           0.00000
  170 Torsion                 12    14    10    16          90.00000
  171 Torsion                 12    14    11    13           0.00000
  172 Torsion                 12    14    11    16         -90.00000
  173 Torsion                 12    15     9    13           0.00000
  174 Torsion                 12    15     9    16          90.00000
  175 Torsion                 12    15    10    14           0.00000
  176 Torsion                 12    15    10    16         -90.00000


            XYZ format geometry
            -------------------
    16
 geometry
 H                     1.40081689     1.40081689     1.40081689
 H                    -1.40081689    -1.40081689     1.40081689
 H                    -1.40081689     1.40081689    -1.40081689
 H                     1.40081689    -1.40081689    -1.40081689
 H                     1.40081689     1.40081689    -1.40081689
 H                    -1.40081689    -1.40081689    -1.40081689
 H                     1.40081689    -1.40081689     1.40081689
 H                    -1.40081689     1.40081689     1.40081689
 C                     0.77853005     0.77853005     0.77853005
 C                    -0.77853005    -0.77853005     0.77853005
 C                    -0.77853005     0.77853005    -0.77853005
 C                     0.77853005    -0.77853005    -0.77853005
 C                     0.77853005     0.77853005    -0.77853005
 C                    -0.77853005    -0.77853005    -0.77853005
 C                     0.77853005    -0.77853005     0.77853005
 C                    -0.77853005     0.77853005     0.77853005

 ==============================================================================
                                internuclear distances
 ------------------------------------------------------------------------------
       center one      |      center two      | atomic units |  angstroms
 ------------------------------------------------------------------------------
    9 C                |   1 H                |     2.03681  |     1.07783
   10 C                |   2 H                |     2.03681  |     1.07783
   11 C                |   3 H                |     2.03681  |     1.07783
   12 C                |   4 H                |     2.03681  |     1.07783
   13 C                |   5 H                |     2.03681  |     1.07783
   13 C                |   9 C                |     2.94242  |     1.55706
   13 C                |  11 C                |     2.94242  |     1.55706
   13 C                |  12 C                |     2.94242  |     1.55706
   14 C                |   6 H                |     2.03681  |     1.07783
   14 C                |  10 C                |     2.94242  |     1.55706
   14 C                |  11 C                |     2.94242  |     1.55706
   14 C                |  12 C                |     2.94242  |     1.55706
   15 C                |   7 H                |     2.03681  |     1.07783
   15 C                |   9 C                |     2.94242  |     1.55706
   15 C                |  10 C                |     2.94242  |     1.55706
   15 C                |  12 C                |     2.94242  |     1.55706
   16 C                |   8 H                |     2.03681  |     1.07783
   16 C                |   9 C                |     2.94242  |     1.55706
   16 C                |  10 C                |     2.94242  |     1.55706
   16 C                |  11 C                |     2.94242  |     1.55706
 ------------------------------------------------------------------------------
                         number of included internuclear distances:         20
 ==============================================================================



 ==============================================================================
                                 internuclear angles
 ------------------------------------------------------------------------------
        center 1       |       center 2       |       center 3       |  degrees
 ------------------------------------------------------------------------------
    1 H                |   9 C                |  13 C                |   125.26
    1 H                |   9 C                |  15 C                |   125.26
    1 H                |   9 C                |  16 C                |   125.26
   13 C                |   9 C                |  15 C                |    90.00
   13 C                |   9 C                |  16 C                |    90.00
   15 C                |   9 C                |  16 C                |    90.00
    2 H                |  10 C                |  14 C                |   125.26
    2 H                |  10 C                |  15 C                |   125.26
    2 H                |  10 C                |  16 C                |   125.26
   14 C                |  10 C                |  15 C                |    90.00
   14 C                |  10 C                |  16 C                |    90.00
   15 C                |  10 C                |  16 C                |    90.00
    3 H                |  11 C                |  13 C                |   125.26
    3 H                |  11 C                |  14 C                |   125.26
    3 H                |  11 C                |  16 C                |   125.26
   13 C                |  11 C                |  14 C                |    90.00
   13 C                |  11 C                |  16 C                |    90.00
   14 C                |  11 C                |  16 C                |    90.00
    4 H                |  12 C                |  13 C                |   125.26
    4 H                |  12 C                |  14 C                |   125.26
    4 H                |  12 C                |  15 C                |   125.26
   13 C                |  12 C                |  14 C                |    90.00
   13 C                |  12 C                |  15 C                |    90.00
   14 C                |  12 C                |  15 C                |    90.00
    5 H                |  13 C                |   9 C                |   125.26
    5 H                |  13 C                |  11 C                |   125.26
    5 H                |  13 C                |  12 C                |   125.26
    9 C                |  13 C                |  11 C                |    90.00
    9 C                |  13 C                |  12 C                |    90.00
   11 C                |  13 C                |  12 C                |    90.00
    6 H                |  14 C                |  10 C                |   125.26
    6 H                |  14 C                |  11 C                |   125.26
    6 H                |  14 C                |  12 C                |   125.26
   10 C                |  14 C                |  11 C                |    90.00
   10 C                |  14 C                |  12 C                |    90.00
   11 C                |  14 C                |  12 C                |    90.00
    7 H                |  15 C                |   9 C                |   125.26
    7 H                |  15 C                |  10 C                |   125.26
    7 H                |  15 C                |  12 C                |   125.26
    9 C                |  15 C                |  10 C                |    90.00
    9 C                |  15 C                |  12 C                |    90.00
   10 C                |  15 C                |  12 C                |    90.00
    8 H                |  16 C                |   9 C                |   125.26
    8 H                |  16 C                |  10 C                |   125.26
    8 H                |  16 C                |  11 C                |   125.26
    9 C                |  16 C                |  10 C                |    90.00
    9 C                |  16 C                |  11 C                |    90.00
   10 C                |  16 C                |  11 C                |    90.00
 ------------------------------------------------------------------------------
                            number of included internuclear angles:         48
 ==============================================================================



  library name resolved from: environment
  library file name is: </opt/Nwchem-dev.revision26871-src.2015-02-24/src/basis/libraries/>
  
                      Basis "ao basis" -> "" (spherical)
                      -----
  H (Hydrogen)
  ------------
            Exponent  Coefficients 
       -------------- ---------------------------------------------------------
  1 S  1.90691690E+02  0.000708
  1 S  2.86055320E+01  0.005468
  1 S  6.50959430E+00  0.027967
  1 S  1.84124550E+00  0.107645

  2 S  5.98537250E-01  1.000000

  3 S  2.13976240E-01  1.000000

  4 S  8.03162860E-02  1.000000

  5 P  2.29200000E+00  1.000000

  6 P  8.38000000E-01  1.000000

  7 P  2.92000000E-01  1.000000

  8 D  2.06200000E+00  1.000000

  9 D  6.62000000E-01  1.000000

 10 F  1.39700000E+00  1.000000

  C (Carbon)
  ----------
            Exponent  Coefficients 
       -------------- ---------------------------------------------------------
  1 S  6.70250710E+04  0.000039
  1 S  1.00399865E+04  0.000301
  1 S  2.28493169E+03  0.001579
  1 S  6.47141221E+02  0.006609
  1 S  2.11094723E+02  0.023367
  1 S  7.61776439E+01  0.070421
  1 S  2.96338392E+01  0.173603
  1 S  1.21877851E+01  0.322923

  2 S  5.30260063E+01  0.074897
  2 S  1.52585028E+01  0.761362

  3 S  5.24039575E+00  1.000000

  4 S  2.29050224E+00  1.000000

  5 S  6.96732830E-01  1.000000

  6 S  2.75993374E-01  1.000000

  7 S  1.07398844E-01  1.000000

  8 P  1.05125551E+02  0.000846
  8 P  2.48844611E+01  0.006627
  8 P  7.86372308E+00  0.030120
  8 P  2.84070018E+00  0.099951
  8 P  1.12271373E+00  0.238263

  9 P  4.60507256E-01  1.000000

 10 P  1.89375309E-01  1.000000

 11 P  7.59837916E-02  1.000000

 12 D  1.84800000E+00  1.000000

 13 D  6.49000000E-01  1.000000

 14 D  2.28000000E-01  1.000000

 15 F  1.41900000E+00  1.000000

 16 F  4.85000000E-01  1.000000

 17 G  1.01100000E+00  1.000000



 Summary of "ao basis" -> "" (spherical)
 ------------------------------------------------------------------------------
       Tag                 Description            Shells   Functions and Types
 ---------------- ------------------------------  ------  ---------------------
 H                         def2-QZVPP               10       30   4s3p2d1f
 C                         def2-QZVPP               17       57   7s4p3d2f1g




                           NWChem Geometry Optimization
                           ----------------------------




                    cubane HF/def2-QZVPP geometry optimization


 maximum gradient threshold         (gmax) =   0.000450
 rms gradient threshold             (grms) =   0.000300
 maximum cartesian step threshold   (xmax) =   0.001800
 rms cartesian step threshold       (xrms) =   0.001200
 fixed trust radius                (trust) =   0.300000
 maximum step size to saddle      (sadstp) =   0.100000
 energy precision                  (eprec) =   1.0D-07
 maximum number of steps          (nptopt) =   20
 initial hessian option           (inhess) =    0
 line search option               (linopt) =    1
 hessian update option            (modupd) =    1
 saddle point option              (modsad) =    0
 initial eigen-mode to follow     (moddir) =    0
 initial variable to follow       (vardir) =    0
 follow first negative mode     (firstneg) =    T
 apply conjugacy                    (opcg) =    F
 source of zmatrix                         =   autoz   


          -------------------
          Energy Minimization
          -------------------


 Names of Z-matrix variables 
    1              2              3              4              5         
    6              7              8              9             10         
   11             12             13             14             15         
   16             17             18             19             20         
   21             22             23             24             25         
   26             27             28             29             30         
   31             32             33             34             35         
   36             37             38             39             40         
   41             42             43             44             45         
   46             47             48             49             50         
   51             52             53             54             55         
   56             57             58             59             60         
   61             62             63             64             65         
   66             67             68             69             70         
   71             72             73             74             75         
   76             77             78             79             80         
   81             82             83             84             85         
   86             87             88             89             90         
   91             92             93             94             95         
   96             97             98             99            100         
  101            102            103            104            105         
  106            107            108            109            110         
  111            112            113            114            115         
  116            117            118            119            120         
  121            122            123            124            125         
  126            127            128            129            130         
  131            132            133            134            135         
  136            137            138            139            140         
  141            142            143            144            145         
  146            147            148            149            150         
  151            152            153            154            155         
  156            157            158            159            160         
  161            162            163            164            165         
  166            167            168            169            170         
  171            172            173            174            175         
  176         

 Variables with the same non-blank name are constrained to be equal


 Using diagonal initial Hessian 
 Scaling for Hessian diagonals: bonds = 1.00  angles = 0.25  torsions = 0.10

          --------
          Step   0
          --------


                         Geometry "geometry" -> "geometry"
                         ---------------------------------

 Output coordinates in angstroms (scale by  1.889725989 to convert to a.u.)

  No.       Tag          Charge          X              Y              Z
 ---- ---------------- ---------- -------------- -------------- --------------
    1 H                    1.0000     1.40081689     1.40081689     1.40081689
    2 H                    1.0000    -1.40081689    -1.40081689     1.40081689
    3 H                    1.0000    -1.40081689     1.40081689    -1.40081689
    4 H                    1.0000     1.40081689    -1.40081689    -1.40081689
    5 H                    1.0000     1.40081689     1.40081689    -1.40081689
    6 H                    1.0000    -1.40081689    -1.40081689    -1.40081689
    7 H                    1.0000     1.40081689    -1.40081689     1.40081689
    8 H                    1.0000    -1.40081689     1.40081689     1.40081689
    9 C                    6.0000     0.77853005     0.77853005     0.77853005
   10 C                    6.0000    -0.77853005    -0.77853005     0.77853005
   11 C                    6.0000    -0.77853005     0.77853005    -0.77853005
   12 C                    6.0000     0.77853005    -0.77853005    -0.77853005
   13 C                    6.0000     0.77853005     0.77853005    -0.77853005
   14 C                    6.0000    -0.77853005    -0.77853005    -0.77853005
   15 C                    6.0000     0.77853005    -0.77853005     0.77853005
   16 C                    6.0000    -0.77853005     0.77853005     0.77853005

      Atomic Mass 
      ----------- 

      H                  1.007825
      C                 12.000000


 Effective nuclear repulsion energy (a.u.)     370.1469751218

            Nuclear Dipole moment (a.u.) 
            ----------------------------
        X                 Y               Z
 ---------------- ---------------- ----------------
     0.0000000000     0.0000000000     0.0000000000

      Symmetry information
      --------------------

 Group name              Oh       
 Group number             44
 Group order              48
 No. of unique centers     2

      Symmetry unique atoms

     1    9

                                 NWChem SCF Module
                                 -----------------


                    cubane HF/def2-QZVPP geometry optimization



  ao basis        = "ao basis"
  functions       =   696
  atoms           =    16
  closed shells   =    28
  open shells     =     0
  charge          =   0.00
  wavefunction    = RHF 
  input vectors   = atomic
  output vectors  = ./cubane.movecs
  use symmetry    = T
  symmetry adapt  = T


 Summary of "ao basis" -> "ao basis" (spherical)
 ------------------------------------------------------------------------------
       Tag                 Description            Shells   Functions and Types
 ---------------- ------------------------------  ------  ---------------------
 H                         def2-QZVPP               10       30   4s3p2d1f
 C                         def2-QZVPP               17       57   7s4p3d2f1g


      Symmetry analysis of basis
      --------------------------

        a1g        31
        a1u         4
        a2g         4
        a2u        31
        eg         52
        eu         52
        t1g        90
        t1u       171
        t2g       171
        t2u        90


 Forming initial guess at       8.8s


 !! The overlap matrix has   3 vectors deemed linearly dependent with
    eigenvalues:
 2.96D-06 9.45D-06 9.45D-06


      Superposition of Atomic Density Guess
      -------------------------------------

 Sum of atomic energies:        -305.37913672

      Non-variational initial energy
      ------------------------------

 Total energy =    -312.193762
 1-e energy   =   -1142.894743
 2-e energy   =     460.554005
 HOMO         =      -0.298846
 LUMO         =       0.029503


      Symmetry analysis of molecular orbitals - initial
      -------------------------------------------------

  Numbering of irreducible representations: 

     1 a1g         2 a1u         3 a2g         4 a2u         5 eg      
     6 eu          7 t1g         8 t1u         9 t2g        10 t2u     

  Orbital symmetries:

     1 a1g         2 t1u         3 t1u         4 t1u         5 t2g     
     6 t2g         7 t2g         8 a2u         9 a1g        10 t1u     
    11 t1u        12 t1u        13 t2g        14 t2g        15 t2g     
    16 a1g        17 a2u        18 eg         19 eg         20 t1u     
    21 t1u        22 t1u        23 t2u        24 t2u        25 t2u     
    26 t2g        27 t2g        28 t2g        29 t1u        30 t1u     
    31 t1u        32 a1g        33 t2g        34 t2g        35 t2g     
    36 t1u        37 t1u        38 t1u     


 Starting SCF solution at     225.7s



 ----------------------------------------------
         Quadratically convergent ROHF

 Convergence threshold     :          1.000E-04
 Maximum no. of iterations :           30
 Final Fock-matrix accuracy:          1.000E-10
 ----------------------------------------------


              iter       energy          gnorm     gmax       time
             ----- ------------------- --------- --------- --------
                 1     -307.4176707470  1.01D+00  2.10D-01    441.7
                 2     -307.4974322649  3.38D-01  6.35D-02    658.6
                 3     -307.5066621024  9.90D-03  1.52D-03   1299.0
                 4     -307.5066738713  1.87D-05  3.55D-06   2312.0


       Final RHF  results 
       ------------------ 

         Total SCF energy =   -307.506673871290
      One-electron energy =  -1149.655823745983
      Two-electron energy =    472.002174752854
 Nuclear repulsion energy =    370.146975121839

        Time for solution =   2086.6s



       Symmetry analysis of molecular orbitals - final
       -----------------------------------------------

  Numbering of irreducible representations: 

     1 a1g         2 a1u         3 a2g         4 a2u         5 eg      
     6 eu          7 t1g         8 t1u         9 t2g        10 t2u     

  Orbital symmetries:

     1 a1g         2 t1u         3 t1u         4 t1u         5 t2g     
     6 t2g         7 t2g         8 a2u         9 a1g        10 t1u     
    11 t1u        12 t1u        13 t2g        14 t2g        15 t2g     
    16 a1g        17 a2u        18 eg         19 eg         20 t1u     
    21 t1u        22 t1u        23 t2u        24 t2u        25 t2u     
    26 t2g        27 t2g        28 t2g        29 a1g        30 t1u     
    31 t1u        32 t1u        33 t2g        34 t2g        35 t2g     
    36 a2u        37 t1u        38 t1u     

             Final eigenvalues
             -----------------

              1      
    1  -11.2160
    2  -11.2155
    3  -11.2155
    4  -11.2155
    5  -11.2149
    6  -11.2149
    7  -11.2149
    8  -11.2144
    9   -1.2519
   10   -0.9823
   11   -0.9823
   12   -0.9823
   13   -0.7692
   14   -0.7692
   15   -0.7692
   16   -0.7150
   17   -0.6421
   18   -0.5838
   19   -0.5838
   20   -0.5829
   21   -0.5829
   22   -0.5829
   23   -0.3917
   24   -0.3917
   25   -0.3917
   26   -0.3830
   27   -0.3830
   28   -0.3830
   29    0.1104
   30    0.1188
   31    0.1188
   32    0.1188
   33    0.1511
   34    0.1511
   35    0.1511
   36    0.1819
   37    0.1866
   38    0.1866

                       ROHF Final Molecular Orbital Analysis
                       -------------------------------------

 Vector    9  Occ=2.000000D+00  E=-1.251901D+00  Symmetry=a1g
              MO Center=  9.0D-17,  9.0D-17,  1.2D-16, r^2= 1.6D+00
   Bfn.  Coefficient  Atom+Function         Bfn.  Coefficient  Atom+Function  
  ----- ------------  ---------------      ----- ------------  ---------------
   246      0.139720   9 C  s               303      0.139720  10 C  s         
   360      0.139720  11 C  s               417      0.139720  12 C  s         
   474      0.139720  13 C  s               531      0.139720  14 C  s         
   588      0.139720  15 C  s               645      0.139720  16 C  s         

 Vector   10  Occ=2.000000D+00  E=-9.822761D-01  Symmetry=t1u
              MO Center=  2.1D-15,  8.3D-15, -7.7D-15, r^2= 2.6D+00
   Bfn.  Coefficient  Atom+Function         Bfn.  Coefficient  Atom+Function  
  ----- ------------  ---------------      ----- ------------  ---------------
   303      0.170901  10 C  s               474     -0.170901  13 C  s         
   417     -0.162062  12 C  s               645      0.162062  16 C  s         

 Vector   11  Occ=2.000000D+00  E=-9.822761D-01  Symmetry=t1u
              MO Center=  3.3D-15,  4.3D-15,  1.5D-14, r^2= 2.6D+00
   Bfn.  Coefficient  Atom+Function         Bfn.  Coefficient  Atom+Function  
  ----- ------------  ---------------      ----- ------------  ---------------
   246      0.207455   9 C  s               531     -0.207455  14 C  s         
   417     -0.199861  12 C  s               645      0.199861  16 C  s         

 Vector   12  Occ=2.000000D+00  E=-9.822761D-01  Symmetry=t1u
              MO Center= -6.6D-17, -4.2D-17, -9.0D-17, r^2= 2.6D+00
   Bfn.  Coefficient  Atom+Function         Bfn.  Coefficient  Atom+Function  
  ----- ------------  ---------------      ----- ------------  ---------------
   360      0.219354  11 C  s               588     -0.219354  15 C  s         
   303     -0.185937  10 C  s               474      0.185937  13 C  s         

 Vector   13  Occ=2.000000D+00  E=-7.692434D-01  Symmetry=t2g
              MO Center=  4.7D-13, -6.4D-13, -3.4D-13, r^2= 4.0D+00
   Bfn.  Coefficient  Atom+Function         Bfn.  Coefficient  Atom+Function  
  ----- ------------  ---------------      ----- ------------  ---------------
   417      0.267995  12 C  s               645      0.267995  16 C  s         

 Vector   14  Occ=2.000000D+00  E=-7.692434D-01  Symmetry=t2g
              MO Center= -2.5D-13, -2.2D-13,  7.9D-14, r^2= 4.0D+00
   Bfn.  Coefficient  Atom+Function         Bfn.  Coefficient  Atom+Function  
  ----- ------------  ---------------      ----- ------------  ---------------
   360     -0.222612  11 C  s               588     -0.222612  15 C  s         
   303      0.212344  10 C  s               474      0.212344  13 C  s         

 Vector   15  Occ=2.000000D+00  E=-7.692434D-01  Symmetry=t2g
              MO Center= -2.1D-13,  1.6D-14, -1.9D-13, r^2= 4.0D+00
   Bfn.  Coefficient  Atom+Function         Bfn.  Coefficient  Atom+Function  
  ----- ------------  ---------------      ----- ------------  ---------------
   246      0.240295   9 C  s               531      0.240295  14 C  s         
   303     -0.181153  10 C  s               474     -0.181153  13 C  s         

 Vector   16  Occ=2.000000D+00  E=-7.149572D-01  Symmetry=a1g
              MO Center=  4.2D-17, -1.8D-15, -8.5D-16, r^2= 4.3D+00
   Bfn.  Coefficient  Atom+Function         Bfn.  Coefficient  Atom+Function  
  ----- ------------  ---------------      ----- ------------  ---------------
     3      0.063620   1 H  s                33      0.063620   2 H  s         
    63      0.063620   3 H  s                93      0.063620   4 H  s         
   123      0.063620   5 H  s               153      0.063620   6 H  s         
   183      0.063620   7 H  s               213      0.063620   8 H  s         
     2      0.062052   1 H  s                32      0.062052   2 H  s         

 Vector   17  Occ=2.000000D+00  E=-6.421226D-01  Symmetry=a2u
              MO Center= -6.4D-14,  2.7D-13,  1.2D-13, r^2= 5.0D+00
   Bfn.  Coefficient  Atom+Function         Bfn.  Coefficient  Atom+Function  
  ----- ------------  ---------------      ----- ------------  ---------------
   246      0.119629   9 C  s               303      0.119629  10 C  s         
   360      0.119629  11 C  s               417      0.119629  12 C  s         
   474     -0.119629  13 C  s               531     -0.119629  14 C  s         
   588     -0.119629  15 C  s               645     -0.119629  16 C  s         

 Vector   18  Occ=2.000000D+00  E=-5.838198D-01  Symmetry=eg
              MO Center=  2.8D-17, -6.9D-17, -5.6D-17, r^2= 2.5D+00
   Bfn.  Coefficient  Atom+Function         Bfn.  Coefficient  Atom+Function  
  ----- ------------  ---------------      ----- ------------  ---------------
   252      0.085722   9 C  py              309     -0.085722  10 C  py        
   366      0.085722  11 C  py              423     -0.085722  12 C  py        
   480      0.085722  13 C  py              537     -0.085722  14 C  py        
   594     -0.085722  15 C  py              651      0.085722  16 C  py        
   249      0.078475   9 C  py              306     -0.078475  10 C  py        

 Vector   19  Occ=2.000000D+00  E=-5.838198D-01  Symmetry=eg
              MO Center= -8.5D-16, -7.6D-16,  2.5D-15, r^2= 2.5D+00
   Bfn.  Coefficient  Atom+Function         Bfn.  Coefficient  Atom+Function  
  ----- ------------  ---------------      ----- ------------  ---------------
   251      0.090218   9 C  px              308     -0.090218  10 C  px        
   365     -0.090218  11 C  px              422      0.090218  12 C  px        
   479      0.090218  13 C  px              536     -0.090218  14 C  px        
   593      0.090218  15 C  px              650     -0.090218  16 C  px        
   248      0.082590   9 C  px              305     -0.082590  10 C  px        

 Vector   20  Occ=2.000000D+00  E=-5.829293D-01  Symmetry=t1u
              MO Center=  1.5D-16, -6.2D-15, -6.8D-15, r^2= 4.1D+00
   Bfn.  Coefficient  Atom+Function         Bfn.  Coefficient  Atom+Function  
  ----- ------------  ---------------      ----- ------------  ---------------
    63      0.127600   3 H  s               183     -0.127600   7 H  s         

 Vector   21  Occ=2.000000D+00  E=-5.829293D-01  Symmetry=t1u
              MO Center= -3.5D-15,  3.3D-14,  7.6D-14, r^2= 4.1D+00
   Bfn.  Coefficient  Atom+Function         Bfn.  Coefficient  Atom+Function  
  ----- ------------  ---------------      ----- ------------  ---------------
    93     -0.108930   4 H  s               213      0.108930   8 H  s         
     3      0.101583   1 H  s               153     -0.101583   6 H  s         

 Vector   22  Occ=2.000000D+00  E=-5.829293D-01  Symmetry=t1u
              MO Center=  8.5D-15,  1.1D-14, -1.9D-15, r^2= 4.1D+00
   Bfn.  Coefficient  Atom+Function         Bfn.  Coefficient  Atom+Function  
  ----- ------------  ---------------      ----- ------------  ---------------
    33      0.116122   2 H  s               123     -0.116122   5 H  s         

 Vector   23  Occ=2.000000D+00  E=-3.917270D-01  Symmetry=t2u
              MO Center= -1.2D-15,  4.7D-16,  9.6D-16, r^2= 2.8D+00
   Bfn.  Coefficient  Atom+Function         Bfn.  Coefficient  Atom+Function  
  ----- ------------  ---------------      ----- ------------  ---------------
   367      0.121108  11 C  pz              424     -0.121108  12 C  pz        
   595      0.121108  15 C  pz              652     -0.121108  16 C  pz        
   370      0.117609  11 C  pz              427     -0.117609  12 C  pz        
   598      0.117609  15 C  pz              655     -0.117609  16 C  pz        
   364      0.113401  11 C  pz              421     -0.113401  12 C  pz        

 Vector   24  Occ=2.000000D+00  E=-3.917270D-01  Symmetry=t2u
              MO Center=  9.0D-17,  1.6D-16, -4.7D-16, r^2= 2.8D+00
   Bfn.  Coefficient  Atom+Function         Bfn.  Coefficient  Atom+Function  
  ----- ------------  ---------------      ----- ------------  ---------------
   253      0.121653   9 C  pz              310     -0.121653  10 C  pz        
   481     -0.121653  13 C  pz              538      0.121653  14 C  pz        
   256      0.118138   9 C  pz              313     -0.118138  10 C  pz        
   484     -0.118138  13 C  pz              541      0.118138  14 C  pz        
   250      0.113912   9 C  pz              307     -0.113912  10 C  pz        

 Vector   25  Occ=2.000000D+00  E=-3.917270D-01  Symmetry=t2u
              MO Center= -6.5D-15,  6.0D-15, -1.1D-16, r^2= 2.8D+00
   Bfn.  Coefficient  Atom+Function         Bfn.  Coefficient  Atom+Function  
  ----- ------------  ---------------      ----- ------------  ---------------
   251      0.094098   9 C  px              422     -0.094098  12 C  px        
   536      0.094098  14 C  px              650     -0.094098  16 C  px        
   254      0.091379   9 C  px              425     -0.091379  12 C  px        
   539      0.091379  14 C  px              653     -0.091379  16 C  px        
   252     -0.090782   9 C  py              366      0.090782  11 C  py        

 Vector   26  Occ=2.000000D+00  E=-3.829960D-01  Symmetry=t2g
              MO Center=  2.0D-13,  1.9D-13, -2.0D-13, r^2= 3.5D+00
   Bfn.  Coefficient  Atom+Function         Bfn.  Coefficient  Atom+Function  
  ----- ------------  ---------------      ----- ------------  ---------------
    33      0.120461   2 H  s               123      0.120461   5 H  s         
   256      0.119163   9 C  pz              541     -0.119163  14 C  pz        
   427      0.116867  12 C  pz              655     -0.116867  16 C  pz        
   370      0.113799  11 C  pz              598     -0.113799  15 C  pz        
   313      0.111502  10 C  pz              484     -0.111502  13 C  pz        

 Vector   27  Occ=2.000000D+00  E=-3.829960D-01  Symmetry=t2g
              MO Center= -4.8D-13,  6.4D-13,  2.0D-13, r^2= 3.5D+00
   Bfn.  Coefficient  Atom+Function         Bfn.  Coefficient  Atom+Function  
  ----- ------------  ---------------      ----- ------------  ---------------
    93      0.129790   4 H  s               213      0.129790   8 H  s         

 Vector   28  Occ=2.000000D+00  E=-3.829960D-01  Symmetry=t2g
              MO Center=  1.9D-14, -2.1D-14,  2.4D-15, r^2= 3.5D+00
   Bfn.  Coefficient  Atom+Function         Bfn.  Coefficient  Atom+Function  
  ----- ------------  ---------------      ----- ------------  ---------------
     3      0.130257   1 H  s               153      0.130257   6 H  s         

 Vector   29  Occ=0.000000D+00  E= 1.104353D-01  Symmetry=a1g
              MO Center=  0.0D+00, -2.0D-15,  2.3D-14, r^2= 1.5D+01
   Bfn.  Coefficient  Atom+Function         Bfn.  Coefficient  Atom+Function  
  ----- ------------  ---------------      ----- ------------  ---------------
     4      2.049129   1 H  s                34      2.049129   2 H  s         
    64      2.049129   3 H  s                94      2.049129   4 H  s         
   124      2.049129   5 H  s               154      2.049129   6 H  s         
   184      2.049129   7 H  s               214      2.049129   8 H  s         
   247     -2.022405   9 C  s               304     -2.022405  10 C  s         

 Vector   30  Occ=0.000000D+00  E= 1.188216D-01  Symmetry=t1u
              MO Center=  3.1D-14,  4.6D-14,  1.7D-14, r^2= 1.4D+01
   Bfn.  Coefficient  Atom+Function         Bfn.  Coefficient  Atom+Function  
  ----- ------------  ---------------      ----- ------------  ---------------
   247      4.212622   9 C  s               532     -4.212622  14 C  s         
   418     -2.655043  12 C  s               646      2.655043  16 C  s         
   255     -1.937181   9 C  py              540     -1.937181  14 C  py        
     3      1.896220   1 H  s               153     -1.896220   6 H  s         
   304     -1.874020  10 C  s               475      1.874020  13 C  s         

 Vector   31  Occ=0.000000D+00  E= 1.188216D-01  Symmetry=t1u
              MO Center=  7.5D-14, -9.3D-15, -9.2D-14, r^2= 1.4D+01
   Bfn.  Coefficient  Atom+Function         Bfn.  Coefficient  Atom+Function  
  ----- ------------  ---------------      ----- ------------  ---------------
   304      4.014821  10 C  s               475     -4.014821  13 C  s         
   418     -3.480251  12 C  s               646      3.480251  16 C  s         
    33      1.807184   2 H  s               123     -1.807184   5 H  s         
   311      1.741903  10 C  px              482      1.741903  13 C  px        
   313     -1.680210  10 C  pz              484     -1.680210  13 C  pz        

 Vector   32  Occ=0.000000D+00  E= 1.188216D-01  Symmetry=t1u
              MO Center=  6.3D-14, -6.4D-14,  4.7D-14, r^2= 1.4D+01
   Bfn.  Coefficient  Atom+Function         Bfn.  Coefficient  Atom+Function  
  ----- ------------  ---------------      ----- ------------  ---------------
   361      4.602892  11 C  s               589     -4.602892  15 C  s         
    63      2.071892   3 H  s               183     -2.071892   7 H  s         
   247     -1.844388   9 C  s               532      1.844388  14 C  s         
   368      1.726991  11 C  px              596      1.726991  15 C  px        
    64     -1.698404   3 H  s               184      1.698404   7 H  s         

 Vector   33  Occ=0.000000D+00  E= 1.511490D-01  Symmetry=t2g
              MO Center= -4.1D-14, -8.4D-14, -1.1D-13, r^2= 1.7D+01
   Bfn.  Coefficient  Atom+Function         Bfn.  Coefficient  Atom+Function  
  ----- ------------  ---------------      ----- ------------  ---------------
   418     -4.187917  12 C  s               646     -4.187917  16 C  s         
   361      4.002408  11 C  s               589      4.002408  15 C  s         
   304      3.813058  10 C  s               475      3.813058  13 C  s         
   247     -3.627549   9 C  s               532     -3.627549  14 C  s         
    94      2.416701   4 H  s               214      2.416701   8 H  s         

 Vector   34  Occ=0.000000D+00  E= 1.511490D-01  Symmetry=t2g
              MO Center= -7.5D-14, -1.4D-14,  7.5D-14, r^2= 1.7D+01
   Bfn.  Coefficient  Atom+Function         Bfn.  Coefficient  Atom+Function  
  ----- ------------  ---------------      ----- ------------  ---------------
   304      5.507920  10 C  s               475      5.507920  13 C  s         
   361     -5.290709  11 C  s               589     -5.290709  15 C  s         
    34     -3.178429   2 H  s               124     -3.178429   5 H  s         
    64      3.053084   3 H  s               184      3.053084   7 H  s         
   311      2.483166  10 C  px              482     -2.483166  13 C  px        

 Vector   35  Occ=0.000000D+00  E= 1.511490D-01  Symmetry=t2g
              MO Center= -1.1D-13,  3.0D-14,  3.0D-14, r^2= 1.7D+01
   Bfn.  Coefficient  Atom+Function         Bfn.  Coefficient  Atom+Function  
  ----- ------------  ---------------      ----- ------------  ---------------
   247      5.572939   9 C  s               532      5.572939  14 C  s         
   418     -5.215514  12 C  s               646     -5.215514  16 C  s         
     4     -3.215949   1 H  s               154     -3.215949   6 H  s         
    94      3.009692   4 H  s               214      3.009692   8 H  s         
   254     -2.486086   9 C  px              539      2.486086  14 C  px        

 Vector   36  Occ=0.000000D+00  E= 1.819111D-01  Symmetry=a2u
              MO Center= -1.6D-14, -2.0D-13, -2.1D-13, r^2= 1.9D+01
   Bfn.  Coefficient  Atom+Function         Bfn.  Coefficient  Atom+Function  
  ----- ------------  ---------------      ----- ------------  ---------------
     4      4.151495   1 H  s                34      4.151495   2 H  s         
    64      4.151495   3 H  s                94      4.151495   4 H  s         
   124     -4.151495   5 H  s               154     -4.151495   6 H  s         
   184     -4.151495   7 H  s               214     -4.151495   8 H  s         
   247     -2.111026   9 C  s               304     -2.111026  10 C  s         

 Vector   37  Occ=0.000000D+00  E= 1.865917D-01  Symmetry=t1u
              MO Center= -7.3D-14,  9.2D-15,  4.8D-14, r^2= 1.3D+01
   Bfn.  Coefficient  Atom+Function         Bfn.  Coefficient  Atom+Function  
  ----- ------------  ---------------      ----- ------------  ---------------
    34      3.923181   2 H  s                94     -3.907165   4 H  s         
   124     -3.923181   5 H  s               214      3.907165   8 H  s         
    33     -2.578545   2 H  s                93      2.568019   4 H  s         
   123      2.578545   5 H  s               213     -2.568019   8 H  s         
   314      1.963410  10 C  px              428      1.957783  12 C  px        

 Vector   38  Occ=0.000000D+00  E= 1.865917D-01  Symmetry=t1u
              MO Center=  1.8D-14, -6.9D-14,  3.9D-14, r^2= 1.3D+01
   Bfn.  Coefficient  Atom+Function         Bfn.  Coefficient  Atom+Function  
  ----- ------------  ---------------      ----- ------------  ---------------
    64      4.339612   3 H  s               184     -4.339612   7 H  s         
    63     -2.852248   3 H  s               183      2.852248   7 H  s         
    34     -2.437368   2 H  s               124      2.437368   5 H  s         
    94     -2.380661   4 H  s               214      2.380661   8 H  s         
   372     -2.230665  11 C  py              600     -2.230665  15 C  py        

 Vector   39  Occ=0.000000D+00  E= 1.865917D-01  Symmetry=t1u
              MO Center= -5.6D-14, -1.0D-13,  8.4D-15, r^2= 1.3D+01
   Bfn.  Coefficient  Atom+Function         Bfn.  Coefficient  Atom+Function  
  ----- ------------  ---------------      ----- ------------  ---------------
     4      4.771360   1 H  s               154     -4.771360   6 H  s         
     3     -3.136019   1 H  s               153      3.136019   6 H  s         
   259     -2.186136   9 C  pz              544     -2.186136  14 C  pz        
   257     -2.164743   9 C  px              542     -2.164743  14 C  px        
   258     -2.076439   9 C  py              543     -2.076439  14 C  py        

 Vector   40  Occ=0.000000D+00  E= 2.077286D-01  Symmetry=eg
              MO Center= -7.4D-16,  3.3D-16,  3.7D-15, r^2= 1.0D+01
   Bfn.  Coefficient  Atom+Function         Bfn.  Coefficient  Atom+Function  
  ----- ------------  ---------------      ----- ------------  ---------------
   259      0.368537   9 C  pz              316      0.368537  10 C  pz        
   373     -0.368537  11 C  pz              430     -0.368537  12 C  pz        
   487     -0.368537  13 C  pz              544     -0.368537  14 C  pz        
   601      0.368537  15 C  pz              658      0.368537  16 C  pz        
   258     -0.261747   9 C  py              315      0.261747  10 C  py        

 Vector   41  Occ=0.000000D+00  E= 2.077286D-01  Symmetry=eg
              MO Center=  6.4D-16,  4.6D-15,  9.7D-17, r^2= 1.0D+01
   Bfn.  Coefficient  Atom+Function         Bfn.  Coefficient  Atom+Function  
  ----- ------------  ---------------      ----- ------------  ---------------
   257      0.363895   9 C  px              314     -0.363895  10 C  px        
   371     -0.363895  11 C  px              428      0.363895  12 C  px        
   485      0.363895  13 C  px              542     -0.363895  14 C  px        
   599      0.363895  15 C  px              656     -0.363895  16 C  px        
   258     -0.274431   9 C  py              315      0.274431  10 C  py        

 Vector   42  Occ=0.000000D+00  E= 2.668368D-01  Symmetry=t2g
              MO Center= -2.6D-14,  1.5D-14,  2.5D-13, r^2= 1.6D+01
   Bfn.  Coefficient  Atom+Function         Bfn.  Coefficient  Atom+Function  
  ----- ------------  ---------------      ----- ------------  ---------------
   361     10.275045  11 C  s               589     10.275045  15 C  s         
   304     -8.313585  10 C  s               475     -8.313585  13 C  s         
    64      7.755154   3 H  s               184      7.755154   7 H  s         
   247     -7.747515   9 C  s               532     -7.747515  14 C  s         
    34     -6.274730   2 H  s               124     -6.274730   5 H  s         

 Vector   43  Occ=0.000000D+00  E= 2.668368D-01  Symmetry=t2g
              MO Center= -1.1D-13, -2.8D-13, -2.0D-13, r^2= 1.6D+01
   Bfn.  Coefficient  Atom+Function         Bfn.  Coefficient  Atom+Function  
  ----- ------------  ---------------      ----- ------------  ---------------
   304     10.042047  10 C  s               475     10.042047  13 C  s         
   247     -8.443789   9 C  s               532     -8.443789  14 C  s         
   418     -7.683065  12 C  s               646     -7.683065  16 C  s         
    34      7.579297   2 H  s               124      7.579297   5 H  s         
     4     -6.373002   1 H  s               154     -6.373002   6 H  s         

 Vector   44  Occ=0.000000D+00  E= 2.668368D-01  Symmetry=t2g
              MO Center=  6.4D-14,  2.7D-12, -1.2D-12, r^2= 1.6D+01
   Bfn.  Coefficient  Atom+Function         Bfn.  Coefficient  Atom+Function  
  ----- ------------  ---------------      ----- ------------  ---------------
   418     10.422959  12 C  s               646     10.422959  16 C  s         
   247     -8.356102   9 C  s               532     -8.356102  14 C  s         
    94      7.866793   4 H  s               214      7.866793   8 H  s         
   361     -7.651442  11 C  s               589     -7.651442  15 C  s         
     4     -6.306819   1 H  s               154     -6.306819   6 H  s         

 Vector   45  Occ=0.000000D+00  E= 2.701057D-01  Symmetry=t2u
              MO Center= -2.4D-14,  4.3D-15,  2.0D-14, r^2= 1.2D+01
   Bfn.  Coefficient  Atom+Function         Bfn.  Coefficient  Atom+Function  
  ----- ------------  ---------------      ----- ------------  ---------------
   257      0.954321   9 C  px              428     -0.954321  12 C  px        
   542      0.954321  14 C  px              656     -0.954321  16 C  px        
   259     -0.755678   9 C  pz              316      0.755678  10 C  pz        
   487      0.755678  13 C  pz              544     -0.755678  14 C  pz        
   315      0.624444  10 C  py              429     -0.624444  12 C  py        

 Vector   46  Occ=0.000000D+00  E= 2.701057D-01  Symmetry=t2u
              MO Center=  5.3D-14, -1.7D-14,  1.2D-13, r^2= 1.2D+01
   Bfn.  Coefficient  Atom+Function         Bfn.  Coefficient  Atom+Function  
  ----- ------------  ---------------      ----- ------------  ---------------
   258      0.941041   9 C  py              372     -0.941041  11 C  py        
   543      0.941041  14 C  py              600     -0.941041  15 C  py        
   373     -0.686760  11 C  pz              430      0.686760  12 C  pz        
   601     -0.686760  15 C  pz              658      0.686760  16 C  pz        
   259     -0.615542   9 C  pz              316      0.615542  10 C  pz        

 Vector   47  Occ=0.000000D+00  E= 2.701057D-01  Symmetry=t2u
              MO Center=  1.6D-14,  1.7D-14, -2.2D-14, r^2= 1.2D+01
   Bfn.  Coefficient  Atom+Function         Bfn.  Coefficient  Atom+Function  
  ----- ------------  ---------------      ----- ------------  ---------------
   314      0.967844  10 C  px              371     -0.967844  11 C  px        
   485      0.967844  13 C  px              599     -0.967844  15 C  px        
   315     -0.705807  10 C  py              429      0.705807  12 C  py        
   486     -0.705807  13 C  py              657      0.705807  16 C  py        
   373      0.661926  11 C  pz              430     -0.661926  12 C  pz        

 Vector   48  Occ=0.000000D+00  E= 2.993976D-01  Symmetry=t1g
              MO Center= -2.2D-14, -2.1D-14, -4.8D-15, r^2= 1.0D+01
   Bfn.  Coefficient  Atom+Function         Bfn.  Coefficient  Atom+Function  
  ----- ------------  ---------------      ----- ------------  ---------------
   315      2.562154  10 C  py              429     -2.562154  12 C  py        
   486     -2.562154  13 C  py              657      2.562154  16 C  py        
   257      2.467844   9 C  px              428     -2.467844  12 C  px        
   542     -2.467844  14 C  px              656      2.467844  16 C  px        
   314     -1.566400  10 C  px              371      1.566400  11 C  px        

 Vector   49  Occ=0.000000D+00  E= 2.993976D-01  Symmetry=t1g
              MO Center=  8.7D-13,  6.3D-13,  6.4D-13, r^2= 1.0D+01
   Bfn.  Coefficient  Atom+Function         Bfn.  Coefficient  Atom+Function  
  ----- ------------  ---------------      ----- ------------  ---------------
   259      2.781329   9 C  pz              316     -2.781329  10 C  pz        
   487      2.781329  13 C  pz              544     -2.781329  14 C  pz        
   314     -2.415762  10 C  px              371      2.415762  11 C  px        
   485      2.415762  13 C  px              599     -2.415762  15 C  px        
   258     -1.705358   9 C  py              372      1.705358  11 C  py        

 Vector   50  Occ=0.000000D+00  E= 2.993976D-01  Symmetry=t1g
              MO Center= -3.7D-14,  3.6D-14, -2.7D-13, r^2= 1.0D+01
   Bfn.  Coefficient  Atom+Function         Bfn.  Coefficient  Atom+Function  
  ----- ------------  ---------------      ----- ------------  ---------------
   373      2.936736  11 C  pz              430     -2.936736  12 C  pz        
   601     -2.936736  15 C  pz              658      2.936736  16 C  pz        
   258     -2.015611   9 C  py              372      2.015611  11 C  py        
   543      2.015611  14 C  py              600     -2.015611  15 C  py        
   315     -1.561957  10 C  py              429      1.561957  12 C  py        

 Vector   51  Occ=0.000000D+00  E= 3.016971D-01  Symmetry=a1g
              MO Center= -6.5D-14, -1.5D-13,  8.8D-14, r^2= 9.8D+00
   Bfn.  Coefficient  Atom+Function         Bfn.  Coefficient  Atom+Function  
  ----- ------------  ---------------      ----- ------------  ---------------
   247      4.028768   9 C  s               304      4.028768  10 C  s         
   361      4.028768  11 C  s               418      4.028768  12 C  s         
   475      4.028768  13 C  s               532      4.028768  14 C  s         
   589      4.028768  15 C  s               646      4.028768  16 C  s         
     4     -2.852432   1 H  s                34     -2.852432   2 H  s         

 Vector   52  Occ=0.000000D+00  E= 3.352226D-01  Symmetry=t1u
              MO Center= -4.6D-13, -9.0D-14,  3.4D-13, r^2= 1.0D+01
   Bfn.  Coefficient  Atom+Function         Bfn.  Coefficient  Atom+Function  
  ----- ------------  ---------------      ----- ------------  ---------------
    34      6.632285   2 H  s               124     -6.632285   5 H  s         
    94     -5.443142   4 H  s               214      5.443142   8 H  s         
   316     -4.697340  10 C  pz              487     -4.697340  13 C  pz        
   304      4.500574  10 C  s               475     -4.500574  13 C  s         
   314      4.437800  10 C  px              485      4.437800  13 C  px        

 Vector   53  Occ=0.000000D+00  E= 3.352226D-01  Symmetry=t1u
              MO Center=  7.0D-13, -9.7D-13,  2.7D-13, r^2= 1.0D+01
   Bfn.  Coefficient  Atom+Function         Bfn.  Coefficient  Atom+Function  
  ----- ------------  ---------------      ----- ------------  ---------------
    64      7.230661   3 H  s               184     -7.230661   7 H  s         
   372     -4.964205  11 C  py              600     -4.964205  15 C  py        
   361      4.906624  11 C  s               371      4.898377  11 C  px        
   589     -4.906624  15 C  s               599      4.898377  15 C  px        
    94     -4.825538   4 H  s               214      4.825538   8 H  s         

 Vector   54  Occ=0.000000D+00  E= 3.352226D-01  Symmetry=t1u
              MO Center=  1.0D-13, -2.8D-13,  2.7D-13, r^2= 1.0D+01
   Bfn.  Coefficient  Atom+Function         Bfn.  Coefficient  Atom+Function  
  ----- ------------  ---------------      ----- ------------  ---------------
     4      7.588211   1 H  s               154     -7.588211   6 H  s         
   247      5.149252   9 C  s               258     -5.148877   9 C  py        
   532     -5.149252  14 C  s               543     -5.148877  14 C  py        
   257     -5.068947   9 C  px              542     -5.068947  14 C  px        
   259     -4.975811   9 C  pz              544     -4.975811  14 C  pz        

 Vector   55  Occ=0.000000D+00  E= 3.547700D-01  Symmetry=a1g
              MO Center= -8.3D-14,  4.7D-13, -9.0D-14, r^2= 1.2D+01
   Bfn.  Coefficient  Atom+Function         Bfn.  Coefficient  Atom+Function  
  ----- ------------  ---------------      ----- ------------  ---------------
   247     -5.227657   9 C  s               304     -5.227657  10 C  s         
   361     -5.227657  11 C  s               418     -5.227657  12 C  s         
   475     -5.227657  13 C  s               532     -5.227657  14 C  s         
   589     -5.227657  15 C  s               646     -5.227657  16 C  s         
     4      4.808350   1 H  s                34      4.808350   2 H  s         

 Vector   56  Occ=0.000000D+00  E= 3.874520D-01  Symmetry=eu
              MO Center=  6.2D-14, -8.1D-13,  1.0D-13, r^2= 1.4D+01
   Bfn.  Coefficient  Atom+Function         Bfn.  Coefficient  Atom+Function  
  ----- ------------  ---------------      ----- ------------  ---------------
   257      6.941292   9 C  px              314     -6.941292  10 C  px        
   371     -6.941292  11 C  px              428      6.941292  12 C  px        
   485     -6.941292  13 C  px              542      6.941292  14 C  px        
   599     -6.941292  15 C  px              656      6.941292  16 C  px        
   259     -3.714651   9 C  pz              316     -3.714651  10 C  pz        

 Vector   57  Occ=0.000000D+00  E= 3.874520D-01  Symmetry=eu
              MO Center= -3.5D-14, -1.9D-13, -1.1D-13, r^2= 1.4D+01
   Bfn.  Coefficient  Atom+Function         Bfn.  Coefficient  Atom+Function  
  ----- ------------  ---------------      ----- ------------  ---------------
   258      6.152212   9 C  py              315     -6.152212  10 C  py        
   372      6.152212  11 C  py              429     -6.152212  12 C  py        
   486     -6.152212  13 C  py              543      6.152212  14 C  py        
   600      6.152212  15 C  py              657     -6.152212  16 C  py        
   259     -5.870459   9 C  pz              316     -5.870459  10 C  pz        

 Vector   58  Occ=0.000000D+00  E= 4.245050D-01  Symmetry=t1u
              MO Center=  1.3D-12,  8.3D-14, -7.0D-13, r^2= 1.2D+01
   Bfn.  Coefficient  Atom+Function         Bfn.  Coefficient  Atom+Function  
  ----- ------------  ---------------      ----- ------------  ---------------
     4      7.361526   1 H  s               154     -7.361526   6 H  s         
   247     -6.695021   9 C  s               532      6.695021  14 C  s         
   259     -4.778106   9 C  pz              544     -4.778106  14 C  pz        
   257     -4.631544   9 C  px              542     -4.631544  14 C  px        
    34     -4.366697   2 H  s               124      4.366697   5 H  s         

 Vector   59  Occ=0.000000D+00  E= 4.245050D-01  Symmetry=t1u
              MO Center= -2.4D-12,  3.5D-14,  8.6D-13, r^2= 1.2D+01
   Bfn.  Coefficient  Atom+Function         Bfn.  Coefficient  Atom+Function  
  ----- ------------  ---------------      ----- ------------  ---------------
    94     -6.626213   4 H  s               214      6.626213   8 H  s         
    34      6.092391   2 H  s               124     -6.092391   5 H  s         
   418      6.026282  12 C  s               646     -6.026282  16 C  s         
   304     -5.540792  10 C  s               475      5.540792  13 C  s         
   429     -4.527468  12 C  py              657     -4.527468  16 C  py        

 Vector   60  Occ=0.000000D+00  E= 4.245050D-01  Symmetry=t1u
              MO Center= -1.3D-12, -5.2D-13,  1.6D-13, r^2= 1.2D+01
   Bfn.  Coefficient  Atom+Function         Bfn.  Coefficient  Atom+Function  
  ----- ------------  ---------------      ----- ------------  ---------------
    64      7.835121   3 H  s               184     -7.835121   7 H  s         
   361     -7.125737  11 C  s               589      7.125737  15 C  s         
   373      4.909897  11 C  pz              601      4.909897  15 C  pz        
   371      4.841210  11 C  px              372     -4.865118  11 C  py        
   599      4.841210  15 C  px              600     -4.865118  15 C  py        

 Vector   61  Occ=0.000000D+00  E= 4.548878D-01  Symmetry=t2g
              MO Center= -3.4D-11, -4.5D-11,  2.9D-11, r^2= 1.4D+01
   Bfn.  Coefficient  Atom+Function         Bfn.  Coefficient  Atom+Function  
  ----- ------------  ---------------      ----- ------------  ---------------
    34     16.233608   2 H  s               124     16.233608   5 H  s         
   315     13.730904  10 C  py              486    -13.730904  13 C  py        
   314     12.272397  10 C  px              485    -12.272397  13 C  px        
   316    -12.194585  10 C  pz              487     12.194585  13 C  pz        
   258      8.376829   9 C  py              543     -8.376829  14 C  py        

 Vector   62  Occ=0.000000D+00  E= 4.548878D-01  Symmetry=t2g
              MO Center=  1.9D-12, -8.3D-13,  8.1D-13, r^2= 1.4D+01
   Bfn.  Coefficient  Atom+Function         Bfn.  Coefficient  Atom+Function  
  ----- ------------  ---------------      ----- ------------  ---------------
     4     14.871890   1 H  s               154     14.871890   6 H  s         
   259    -13.166648   9 C  pz              544     13.166648  14 C  pz        
   257    -11.670526   9 C  px              542     11.670526  14 C  px        
    64    -11.465141   3 H  s               184    -11.465141   7 H  s         
   373    -11.020885  11 C  pz              601     11.020885  15 C  pz        

 Vector   63  Occ=0.000000D+00  E= 4.548878D-01  Symmetry=t2g
              MO Center= -1.6D-13, -1.2D-13, -4.6D-13, r^2= 1.4D+01
   Bfn.  Coefficient  Atom+Function         Bfn.  Coefficient  Atom+Function  
  ----- ------------  ---------------      ----- ------------  ---------------
    94     16.090797   4 H  s               214     16.090797   8 H  s         
   428    -13.431381  12 C  px              656     13.431381  16 C  px        
   429     12.864212  12 C  py              657    -12.864212  16 C  py        
   430     11.566257  12 C  pz              658    -11.566257  16 C  pz        
    64     -9.913709   3 H  s               184     -9.913709   7 H  s         

 Vector   64  Occ=0.000000D+00  E= 4.635049D-01  Symmetry=a2u
              MO Center=  2.8D-11,  4.4D-11, -2.6D-11, r^2= 1.3D+01
   Bfn.  Coefficient  Atom+Function         Bfn.  Coefficient  Atom+Function  
  ----- ------------  ---------------      ----- ------------  ---------------
     4      6.470290   1 H  s                34      6.470290   2 H  s         
    64      6.470290   3 H  s                94      6.470290   4 H  s         
   124     -6.470290   5 H  s               154     -6.470290   6 H  s         
   184     -6.470290   7 H  s               214     -6.470290   8 H  s         
   257     -4.032557   9 C  px              258     -4.032557   9 C  py        

 Vector   65  Occ=0.000000D+00  E= 4.731379D-01  Symmetry=t1g
              MO Center=  1.1D-15, -8.6D-14, -1.1D-13, r^2= 6.9D+00
   Bfn.  Coefficient  Atom+Function         Bfn.  Coefficient  Atom+Function  
  ----- ------------  ---------------      ----- ------------  ---------------
   256      2.470494   9 C  pz              313     -2.470494  10 C  pz        
   484      2.470494  13 C  pz              541     -2.470494  14 C  pz        
   312     -2.439014  10 C  py              426      2.439014  12 C  py        
   483      2.439014  13 C  py              654     -2.439014  16 C  py        
   259     -2.398977   9 C  pz              316      2.398977  10 C  pz        

 Vector   66  Occ=0.000000D+00  E= 4.731379D-01  Symmetry=t1g
              MO Center= -1.5D-13, -2.1D-13, -9.2D-14, r^2= 6.9D+00
   Bfn.  Coefficient  Atom+Function         Bfn.  Coefficient  Atom+Function  
  ----- ------------  ---------------      ----- ------------  ---------------
   255      2.585749   9 C  py              369     -2.585749  11 C  py        
   540     -2.585749  14 C  py              597      2.585749  15 C  py        
   258     -2.510896   9 C  py              372      2.510896  11 C  py        
   543      2.510896  14 C  py              600     -2.510896  15 C  py        
   254     -2.222588   9 C  px              425      2.222588  12 C  px        

 Vector   67  Occ=0.000000D+00  E= 4.731379D-01  Symmetry=t1g
              MO Center= -1.2D-13,  5.7D-14, -7.8D-14, r^2= 6.9D+00
   Bfn.  Coefficient  Atom+Function         Bfn.  Coefficient  Atom+Function  
  ----- ------------  ---------------      ----- ------------  ---------------
   311      2.428956  10 C  px              368     -2.428956  11 C  px        
   482     -2.428956  13 C  px              596      2.428956  15 C  px        
   370      2.391792  11 C  pz              427     -2.391792  12 C  pz        
   598     -2.391792  15 C  pz              655      2.391792  16 C  pz        
   314     -2.358641  10 C  px              371      2.358641  11 C  px        

 Vector   68  Occ=0.000000D+00  E= 4.780623D-01  Symmetry=t1u
              MO Center=  9.2D-13,  7.8D-13,  1.3D-12, r^2= 9.4D+00
   Bfn.  Coefficient  Atom+Function         Bfn.  Coefficient  Atom+Function  
  ----- ------------  ---------------      ----- ------------  ---------------
     3      7.863842   1 H  s               153     -7.863842   6 H  s         
    93     -5.800462   4 H  s               213      5.800462   8 H  s         
   256     -4.627765   9 C  pz              541     -4.627765  14 C  pz        
   255     -3.980405   9 C  py              540     -3.980405  14 C  py        
   427     -3.862006  12 C  pz              655     -3.862006  16 C  pz        

 Vector   69  Occ=0.000000D+00  E= 4.780623D-01  Symmetry=t1u
              MO Center=  1.0D-11,  6.7D-12, -9.3D-12, r^2= 9.4D+00
   Bfn.  Coefficient  Atom+Function         Bfn.  Coefficient  Atom+Function  
  ----- ------------  ---------------      ----- ------------  ---------------
    33      8.754023   2 H  s               123     -8.754023   5 H  s         
   311      4.515991  10 C  px              482      4.515991  13 C  px        
   312      4.465999  10 C  py              483      4.465999  13 C  py        
   313     -4.315258  10 C  pz              484     -4.315258  13 C  pz        
     3     -3.495666   1 H  s               153      3.495666   6 H  s         

 Vector   70  Occ=0.000000D+00  E= 4.780623D-01  Symmetry=t1u
              MO Center= -1.4D-11,  1.9D-11, -1.3D-11, r^2= 9.4D+00
   Bfn.  Coefficient  Atom+Function         Bfn.  Coefficient  Atom+Function  
  ----- ------------  ---------------      ----- ------------  ---------------
    63      7.990431   3 H  s               183     -7.990431   7 H  s         
    93     -5.984138   4 H  s               213      5.984138   8 H  s         
   368      4.528683  11 C  px              596      4.528683  15 C  px        
   369     -4.236373  11 C  py              597     -4.236373  15 C  py        
   425      3.784110  12 C  px              653      3.784110  16 C  px        

 Vector   71  Occ=0.000000D+00  E= 4.872186D-01  Symmetry=t2g
              MO Center=  4.2D-12, -4.8D-12, -5.0D-12, r^2= 1.1D+01
   Bfn.  Coefficient  Atom+Function         Bfn.  Coefficient  Atom+Function  
  ----- ------------  ---------------      ----- ------------  ---------------
   418     26.668041  12 C  s               646     26.668041  16 C  s         
   247    -19.991333   9 C  s               532    -19.991333  14 C  s         
    94     14.973210   4 H  s               214     14.973210   8 H  s         
   430     14.444420  12 C  pz              658    -14.444420  16 C  pz        
   429     14.176081  12 C  py              657    -14.176081  16 C  py        

 Vector   72  Occ=0.000000D+00  E= 4.872186D-01  Symmetry=t2g
              MO Center=  1.1D-11, -1.5D-11,  1.9D-11, r^2= 1.1D+01
   Bfn.  Coefficient  Atom+Function         Bfn.  Coefficient  Atom+Function  
  ----- ------------  ---------------      ----- ------------  ---------------
   361     28.863701  11 C  s               589     28.863701  15 C  s         
    64     16.205999   3 H  s               184     16.205999   7 H  s         
   371     15.298605  11 C  px              599    -15.298605  15 C  px        
[...]
   53 Bend                    10    15    12                90.00000    0.00000
   54 Bend                    10    16    11                90.00000    0.00000
   55 Bend                    11    13    12                90.00000    0.00000
   56 Bend                    11    14    12                90.00000    0.00000
   57 Bend                    13     9    15                90.00000    0.00000
   58 Bend                    13     9    16                90.00000    0.00000
   59 Bend                    13    11    14                90.00000    0.00000
   60 Bend                    13    11    16                90.00000    0.00000
   61 Bend                    13    12    14                90.00000    0.00000
   62 Bend                    13    12    15                90.00000    0.00000
   63 Bend                    14    10    15                90.00000    0.00000
   64 Bend                    14    10    16                90.00000    0.00000
   65 Bend                    14    11    16                90.00000    0.00000
   66 Bend                    14    12    15                90.00000    0.00000
   67 Bend                    15     9    16                90.00000    0.00000
   68 Bend                    15    10    16                90.00000    0.00000
   69 Torsion                  1     9    13     5           0.00000    0.00000
   70 Torsion                  1     9    13    11        -135.00000   -0.00000
   71 Torsion                  1     9    13    12         135.00000    0.00000
   72 Torsion                  1     9    15     7           0.00000    0.00000
   73 Torsion                  1     9    15    10         135.00000    0.00000
   74 Torsion                  1     9    15    12        -135.00000   -0.00000
   75 Torsion                  1     9    16     8           0.00000    0.00000
   76 Torsion                  1     9    16    10        -135.00000   -0.00000
   77 Torsion                  1     9    16    11         135.00000    0.00000
   78 Torsion                  2    10    14     6           0.00000    0.00000
   79 Torsion                  2    10    14    11         135.00000    0.00000
   80 Torsion                  2    10    14    12        -135.00000   -0.00000
   81 Torsion                  2    10    15     7           0.00000    0.00000
   82 Torsion                  2    10    15     9        -135.00000   -0.00000
   83 Torsion                  2    10    15    12         135.00000    0.00000
   84 Torsion                  2    10    16     8           0.00000    0.00000
   85 Torsion                  2    10    16     9         135.00000    0.00000
   86 Torsion                  2    10    16    11        -135.00000   -0.00000
   87 Torsion                  3    11    13     5           0.00000    0.00000
   88 Torsion                  3    11    13     9         135.00000    0.00000
   89 Torsion                  3    11    13    12        -135.00000   -0.00000
   90 Torsion                  3    11    14     6           0.00000    0.00000
   91 Torsion                  3    11    14    10        -135.00000   -0.00000
   92 Torsion                  3    11    14    12         135.00000    0.00000
   93 Torsion                  3    11    16     8           0.00000    0.00000
   94 Torsion                  3    11    16     9        -135.00000   -0.00000
   95 Torsion                  3    11    16    10         135.00000    0.00000
   96 Torsion                  4    12    13     5           0.00000    0.00000
   97 Torsion                  4    12    13     9        -135.00000   -0.00000
   98 Torsion                  4    12    13    11         135.00000    0.00000
   99 Torsion                  4    12    14     6           0.00000    0.00000
  100 Torsion                  4    12    14    10         135.00000    0.00000
  101 Torsion                  4    12    14    11        -135.00000   -0.00000
  102 Torsion                  4    12    15     7           0.00000    0.00000
  103 Torsion                  4    12    15     9         135.00000    0.00000
  104 Torsion                  4    12    15    10        -135.00000   -0.00000
  105 Torsion                  5    13     9    15        -135.00000   -0.00000
  106 Torsion                  5    13     9    16         135.00000    0.00000
  107 Torsion                  5    13    11    14         135.00000    0.00000
  108 Torsion                  5    13    11    16        -135.00000   -0.00000
  109 Torsion                  5    13    12    14        -135.00000   -0.00000
  110 Torsion                  5    13    12    15         135.00000    0.00000
  111 Torsion                  6    14    10    15         135.00000    0.00000
  112 Torsion                  6    14    10    16        -135.00000   -0.00000
  113 Torsion                  6    14    11    13        -135.00000   -0.00000
  114 Torsion                  6    14    11    16         135.00000    0.00000
  115 Torsion                  6    14    12    13         135.00000    0.00000
  116 Torsion                  6    14    12    15        -135.00000   -0.00000
  117 Torsion                  7    15     9    13         135.00000    0.00000
  118 Torsion                  7    15     9    16        -135.00000   -0.00000
  119 Torsion                  7    15    10    14        -135.00000   -0.00000
  120 Torsion                  7    15    10    16         135.00000    0.00000
  121 Torsion                  7    15    12    13        -135.00000   -0.00000
  122 Torsion                  7    15    12    14         135.00000    0.00000
  123 Torsion                  8    16     9    13        -135.00000   -0.00000
  124 Torsion                  8    16     9    15         135.00000    0.00000
  125 Torsion                  8    16    10    14         135.00000    0.00000
  126 Torsion                  8    16    10    15        -135.00000   -0.00000
  127 Torsion                  8    16    11    13         135.00000    0.00000
  128 Torsion                  8    16    11    14        -135.00000   -0.00000
  129 Torsion                  9    13    11    14         -90.00000    0.00000
  130 Torsion                  9    13    11    16           0.00000    0.00000
  131 Torsion                  9    13    12    14          90.00000    0.00000
  132 Torsion                  9    13    12    15           0.00000    0.00000
  133 Torsion                  9    15    10    14          90.00000    0.00000
  134 Torsion                  9    15    10    16           0.00000    0.00000
  135 Torsion                  9    15    12    13           0.00000    0.00000
  136 Torsion                  9    15    12    14         -90.00000    0.00000
  137 Torsion                  9    16    10    14         -90.00000    0.00000
  138 Torsion                  9    16    10    15           0.00000    0.00000
  139 Torsion                  9    16    11    13           0.00000    0.00000
  140 Torsion                  9    16    11    14          90.00000    0.00000
  141 Torsion                 10    14    11    13          90.00000    0.00000
  142 Torsion                 10    14    11    16           0.00000    0.00000
  143 Torsion                 10    14    12    13         -90.00000    0.00000
  144 Torsion                 10    14    12    15           0.00000    0.00000
  145 Torsion                 10    15     9    13         -90.00000    0.00000
  146 Torsion                 10    15     9    16           0.00000    0.00000
  147 Torsion                 10    15    12    13          90.00000    0.00000
  148 Torsion                 10    15    12    14           0.00000    0.00000
  149 Torsion                 10    16     9    13          90.00000    0.00000
  150 Torsion                 10    16     9    15           0.00000    0.00000
  151 Torsion                 10    16    11    13         -90.00000    0.00000
  152 Torsion                 10    16    11    14           0.00000    0.00000
  153 Torsion                 11    13     9    15          90.00000    0.00000
  154 Torsion                 11    13     9    16           0.00000    0.00000
  155 Torsion                 11    13    12    14           0.00000    0.00000
  156 Torsion                 11    13    12    15         -90.00000    0.00000
  157 Torsion                 11    14    10    15         -90.00000    0.00000
  158 Torsion                 11    14    10    16           0.00000    0.00000
  159 Torsion                 11    14    12    13           0.00000    0.00000
  160 Torsion                 11    14    12    15          90.00000    0.00000
  161 Torsion                 11    16     9    13           0.00000    0.00000
  162 Torsion                 11    16     9    15         -90.00000    0.00000
  163 Torsion                 11    16    10    14           0.00000    0.00000
  164 Torsion                 11    16    10    15          90.00000    0.00000
  165 Torsion                 12    13     9    15           0.00000    0.00000
  166 Torsion                 12    13     9    16         -90.00000    0.00000
  167 Torsion                 12    13    11    14           0.00000    0.00000
  168 Torsion                 12    13    11    16          90.00000    0.00000
  169 Torsion                 12    14    10    15           0.00000    0.00000
  170 Torsion                 12    14    10    16          90.00000    0.00000
  171 Torsion                 12    14    11    13           0.00000    0.00000
  172 Torsion                 12    14    11    16         -90.00000    0.00000
  173 Torsion                 12    15     9    13           0.00000    0.00000
  174 Torsion                 12    15     9    16          90.00000    0.00000
  175 Torsion                 12    15    10    14           0.00000    0.00000
  176 Torsion                 12    15    10    16         -90.00000    0.00000

 ==============================================================================
                                internuclear distances
 ------------------------------------------------------------------------------
       center one      |      center two      | atomic units |  angstroms
 ------------------------------------------------------------------------------
    9 C                |   1 H                |     2.03685  |     1.07785
   10 C                |   2 H                |     2.03685  |     1.07785
   11 C                |   3 H                |     2.03685  |     1.07785
   12 C                |   4 H                |     2.03685  |     1.07785
   13 C                |   5 H                |     2.03685  |     1.07785
   13 C                |   9 C                |     2.94234  |     1.55702
   13 C                |  11 C                |     2.94234  |     1.55702
   13 C                |  12 C                |     2.94234  |     1.55702
   14 C                |   6 H                |     2.03685  |     1.07785
   14 C                |  10 C                |     2.94234  |     1.55702
   14 C                |  11 C                |     2.94234  |     1.55702
   14 C                |  12 C                |     2.94234  |     1.55702
   15 C                |   7 H                |     2.03685  |     1.07785
   15 C                |   9 C                |     2.94234  |     1.55702
   15 C                |  10 C                |     2.94234  |     1.55702
   15 C                |  12 C                |     2.94234  |     1.55702
   16 C                |   8 H                |     2.03685  |     1.07785
   16 C                |   9 C                |     2.94234  |     1.55702
   16 C                |  10 C                |     2.94234  |     1.55702
   16 C                |  11 C                |     2.94234  |     1.55702
 ------------------------------------------------------------------------------
                         number of included internuclear distances:         20
 ==============================================================================



 ==============================================================================
                                 internuclear angles
 ------------------------------------------------------------------------------
        center 1       |       center 2       |       center 3       |  degrees
 ------------------------------------------------------------------------------
    1 H                |   9 C                |  13 C                |   125.26
    1 H                |   9 C                |  15 C                |   125.26
    1 H                |   9 C                |  16 C                |   125.26
   13 C                |   9 C                |  15 C                |    90.00
   13 C                |   9 C                |  16 C                |    90.00
   15 C                |   9 C                |  16 C                |    90.00
    2 H                |  10 C                |  14 C                |   125.26
    2 H                |  10 C                |  15 C                |   125.26
    2 H                |  10 C                |  16 C                |   125.26
   14 C                |  10 C                |  15 C                |    90.00
   14 C                |  10 C                |  16 C                |    90.00
   15 C                |  10 C                |  16 C                |    90.00
    3 H                |  11 C                |  13 C                |   125.26
    3 H                |  11 C                |  14 C                |   125.26
    3 H                |  11 C                |  16 C                |   125.26
   13 C                |  11 C                |  14 C                |    90.00
   13 C                |  11 C                |  16 C                |    90.00
   14 C                |  11 C                |  16 C                |    90.00
    4 H                |  12 C                |  13 C                |   125.26
    4 H                |  12 C                |  14 C                |   125.26
    4 H                |  12 C                |  15 C                |   125.26
   13 C                |  12 C                |  14 C                |    90.00
   13 C                |  12 C                |  15 C                |    90.00
   14 C                |  12 C                |  15 C                |    90.00
    5 H                |  13 C                |   9 C                |   125.26
    5 H                |  13 C                |  11 C                |   125.26
    5 H                |  13 C                |  12 C                |   125.26
    9 C                |  13 C                |  11 C                |    90.00
    9 C                |  13 C                |  12 C                |    90.00
   11 C                |  13 C                |  12 C                |    90.00
    6 H                |  14 C                |  10 C                |   125.26
    6 H                |  14 C                |  11 C                |   125.26
    6 H                |  14 C                |  12 C                |   125.26
   10 C                |  14 C                |  11 C                |    90.00
   10 C                |  14 C                |  12 C                |    90.00
   11 C                |  14 C                |  12 C                |    90.00
    7 H                |  15 C                |   9 C                |   125.26
    7 H                |  15 C                |  10 C                |   125.26
    7 H                |  15 C                |  12 C                |   125.26
    9 C                |  15 C                |  10 C                |    90.00
    9 C                |  15 C                |  12 C                |    90.00
   10 C                |  15 C                |  12 C                |    90.00
    8 H                |  16 C                |   9 C                |   125.26
    8 H                |  16 C                |  10 C                |   125.26
    8 H                |  16 C                |  11 C                |   125.26
    9 C                |  16 C                |  10 C                |    90.00
    9 C                |  16 C                |  11 C                |    90.00
   10 C                |  16 C                |  11 C                |    90.00
 ------------------------------------------------------------------------------
                            number of included internuclear angles:         48
 ==============================================================================




 Task  times  cpu:     6265.0s     wall:     6275.0s
 Summary of allocated global arrays
-----------------------------------
  No active global arrays



                         GA Statistics for process    0
                         ------------------------------

       create   destroy   get      put      acc     scatter   gather  read&inc
calls:  654      654     1.66e+06 1.92e+05 2.99e+05    0        0     1.01e+04 
number of processes/call 1.00e+00 1.00e+00 1.00e+00 0.00e+00 0.00e+00
bytes total:             7.48e+09 1.59e+09 5.64e+09 0.00e+00 0.00e+00 8.12e+04
bytes remote:            0.00e+00 0.00e+00 0.00e+00 0.00e+00 0.00e+00 0.00e+00
Max memory consumed for GA by this process: 38686536 bytes
MA_summarize_allocated_blocks: starting scan ...
MA_summarize_allocated_blocks: scan completed: 0 heap blocks, 0 stack blocks
MA usage statistics:

	allocation statistics:
					      heap	     stack
					      ----	     -----
	current number of blocks	         0	         0
	maximum number of blocks	        20	        29
	current total bytes		         0	         0
	maximum total bytes		   1269976	  61657224
	maximum total K-bytes		      1270	     61658
	maximum total M-bytes		         2	        62


                                NWChem Input Module
                                -------------------





                                     CITATION
                                     --------
                Please cite the following reference when publishing
                           results obtained with NWChem:

                 M. Valiev, E.J. Bylaska, N. Govind, K. Kowalski,
              T.P. Straatsma, H.J.J. van Dam, D. Wang, J. Nieplocha,
                        E. Apra, T.L. Windus, W.A. de Jong
                 "NWChem: a comprehensive and scalable open-source
                  solution for large scale molecular simulations"
                      Comput. Phys. Commun. 181, 1477 (2010)
                           doi:10.1016/j.cpc.2010.04.018

                                      AUTHORS
                                      -------
          E. Apra, E. J. Bylaska, W. A. de Jong, N. Govind, K. Kowalski,
       T. P. Straatsma, M. Valiev, H. J. J. van Dam, D. Wang, T. L. Windus,
        J. Hammond, J. Autschbach, K. Bhaskaran-Nair, J. Brabec, K. Lopata,
        S. Krishnamoorthy, W. Ma, M. Klemm, O. Villa, Y. Chen, V. Anisimov,
    F. Aquino, S. Hirata, M. T. Hackler, T. Risthaus, M. Malagoli, A. Marenich,
   A. Otero-de-la-Roza, J. Mullin, P. Nichols, R. Peverati, J. Pittner, Y. Zhao,
         P.-D. Fan, A. Fonari, R. J. Harrison, M. Dupuis, D. Silverstein,
    D. M. A. Smith, J. Nieplocha, V. Tipparaju, M. Krishnan, B. E. Van Kuiken,
        A. Vazquez-Mayagoitia, L. Jensen, M. Swart, Q. Wu, T. Van Voorhis,
     A. A. Auer, M. Nooijen, L. D. Crosby, E. Brown, G. Cisneros, G. I. Fann,
   H. Fruchtl, J. Garza, K. Hirao, R. A. Kendall, J. A. Nichols, K. Tsemekhman,
    K. Wolinski, J. Anchell, D. E. Bernholdt, P. Borowski, T. Clark, D. Clerc,
   H. Dachsel, M. J. O. Deegan, K. Dyall, D. Elwood, E. Glendening, M. Gutowski,
   A. C. Hess, J. Jaffe, B. G. Johnson, J. Ju, R. Kobayashi, R. Kutteh, Z. Lin,
   R. Littlefield, X. Long, B. Meng, T. Nakajima, S. Niu, L. Pollack, M. Rosing,
   K. Glaesemann, G. Sandrone, M. Stave, H. Taylor, G. Thomas, J. H. van Lenthe,
                               A. T. Wong, Z. Zhang.

 Total times  cpu:     6265.2s     wall:     6275.2s
