 argument  1 = cubane.nw
                                         
                                         


              Northwest Computational Chemistry Package (NWChem) 6.6
              ------------------------------------------------------


                    Environmental Molecular Sciences Laboratory
                       Pacific Northwest National Laboratory
                                Richland, WA 99352

                              Copyright (c) 1994-2015
                       Pacific Northwest National Laboratory
                            Battelle Memorial Institute

             NWChem is an open-source computational chemistry package
                        distributed under the terms of the
                      Educational Community License (ECL) 2.0
             A copy of the license is included with this distribution
                              in the LICENSE.TXT file

                                  ACKNOWLEDGMENT
                                  --------------

            This software and its documentation were developed at the
            EMSL at Pacific Northwest National Laboratory, a multiprogram
            national laboratory, operated for the U.S. Department of Energy
            by Battelle under Contract Number DE-AC05-76RL01830. Support
            for this work was provided by the Department of Energy Office
            of Biological and Environmental Research, Office of Basic
            Energy Sciences, and the Office of Advanced Scientific Computing.


           Job information
           ---------------

    hostname        = dasha
    program         = nwchem
    date            = Sat Mar  4 12:14:18 2017

    compiled        = Mon_Feb_15_08:24:17_2016
    source          = /build/nwchem-MF0R1k/nwchem-6.6+r27746
    nwchem branch   = 6.6
    nwchem revision = 27746
    ga revision     = 10594
    input           = cubane.nw
    prefix          = cubane.
    data base       = ./cubane.db
    status          = startup
    nproc           =        1
    time left       =     -1s



           Memory information
           ------------------

    heap     =   13107200 doubles =    100.0 Mbytes
    stack    =   13107197 doubles =    100.0 Mbytes
    global   =   26214400 doubles =    200.0 Mbytes (distinct from heap & stack)
    total    =   52428797 doubles =    400.0 Mbytes
    verify   = yes
    hardfail = no 


           Directory information
           ---------------------

  0 permanent = .
  0 scratch   = .




                                NWChem Input Module
                                -------------------


                   cubane MP2/aug-cc-pVDZ geometry optimization
                   --------------------------------------------

 Scaling coordinates for geometry "geometry" by  1.889725989
 (inverse scale =  0.529177249)

 Turning off AUTOSYM since
 SYMMETRY directive was detected!


          ------
          auto-z
          ------


                             Geometry "geometry" -> ""
                             -------------------------

 Output coordinates in angstroms (scale by  1.889725989 to convert to a.u.)

  No.       Tag          Charge          X              Y              Z
 ---- ---------------- ---------- -------------- -------------- --------------
    1 H                    1.0000     1.41400000     1.41400000     1.41400000
    2 H                    1.0000    -1.41400000    -1.41400000     1.41400000
    3 H                    1.0000    -1.41400000     1.41400000    -1.41400000
    4 H                    1.0000     1.41400000    -1.41400000    -1.41400000
    5 H                    1.0000     1.41400000     1.41400000    -1.41400000
    6 H                    1.0000    -1.41400000    -1.41400000    -1.41400000
    7 H                    1.0000     1.41400000    -1.41400000     1.41400000
    8 H                    1.0000    -1.41400000     1.41400000     1.41400000
    9 C                    6.0000     0.78980000     0.78980000     0.78980000
   10 C                    6.0000    -0.78980000    -0.78980000     0.78980000
   11 C                    6.0000    -0.78980000     0.78980000    -0.78980000
   12 C                    6.0000     0.78980000    -0.78980000    -0.78980000
   13 C                    6.0000     0.78980000     0.78980000    -0.78980000
   14 C                    6.0000    -0.78980000    -0.78980000    -0.78980000
   15 C                    6.0000     0.78980000    -0.78980000     0.78980000
   16 C                    6.0000    -0.78980000     0.78980000     0.78980000

      Atomic Mass 
      ----------- 

      H                  1.007825
      C                 12.000000


 Effective nuclear repulsion energy (a.u.)     365.3953687263

            Nuclear Dipole moment (a.u.) 
            ----------------------------
        X                 Y               Z
 ---------------- ---------------- ----------------
     0.0000000000     0.0000000000     0.0000000000

      Symmetry information
      --------------------

 Group name              Oh       
 Group number             44
 Group order              48
 No. of unique centers     2

      Symmetry unique atoms

     1    9



                                Z-matrix (autoz)
                                -------- 

 Units are Angstrom for bonds and degrees for angles

      Type          Name      I     J     K     L     M      Value
      ----------- --------  ----- ----- ----- ----- ----- ----------
    1 Stretch                  1     9                       1.08115
    2 Stretch                  2    10                       1.08115
    3 Stretch                  3    11                       1.08115
    4 Stretch                  4    12                       1.08115
    5 Stretch                  5    13                       1.08115
    6 Stretch                  6    14                       1.08115
    7 Stretch                  7    15                       1.08115
    8 Stretch                  8    16                       1.08115
    9 Stretch                  9    13                       1.57960
   10 Stretch                  9    15                       1.57960
   11 Stretch                  9    16                       1.57960
   12 Stretch                 10    14                       1.57960
   13 Stretch                 10    15                       1.57960
   14 Stretch                 10    16                       1.57960
   15 Stretch                 11    13                       1.57960
   16 Stretch                 11    14                       1.57960
   17 Stretch                 11    16                       1.57960
   18 Stretch                 12    13                       1.57960
   19 Stretch                 12    14                       1.57960
   20 Stretch                 12    15                       1.57960
   21 Bend                     1     9    13               125.26439
   22 Bend                     1     9    15               125.26439
   23 Bend                     1     9    16               125.26439
   24 Bend                     2    10    14               125.26439
   25 Bend                     2    10    15               125.26439
   26 Bend                     2    10    16               125.26439
   27 Bend                     3    11    13               125.26439
   28 Bend                     3    11    14               125.26439
   29 Bend                     3    11    16               125.26439
   30 Bend                     4    12    13               125.26439
   31 Bend                     4    12    14               125.26439
   32 Bend                     4    12    15               125.26439
   33 Bend                     5    13     9               125.26439
   34 Bend                     5    13    11               125.26439
   35 Bend                     5    13    12               125.26439
   36 Bend                     6    14    10               125.26439
   37 Bend                     6    14    11               125.26439
   38 Bend                     6    14    12               125.26439
   39 Bend                     7    15     9               125.26439
   40 Bend                     7    15    10               125.26439
   41 Bend                     7    15    12               125.26439
   42 Bend                     8    16     9               125.26439
   43 Bend                     8    16    10               125.26439
   44 Bend                     8    16    11               125.26439
   45 Bend                     9    13    11                90.00000
   46 Bend                     9    13    12                90.00000
   47 Bend                     9    15    10                90.00000
   48 Bend                     9    15    12                90.00000
   49 Bend                     9    16    10                90.00000
   50 Bend                     9    16    11                90.00000
   51 Bend                    10    14    11                90.00000
   52 Bend                    10    14    12                90.00000
   53 Bend                    10    15    12                90.00000
   54 Bend                    10    16    11                90.00000
   55 Bend                    11    13    12                90.00000
   56 Bend                    11    14    12                90.00000
   57 Bend                    13     9    15                90.00000
   58 Bend                    13     9    16                90.00000
   59 Bend                    13    11    14                90.00000
   60 Bend                    13    11    16                90.00000
   61 Bend                    13    12    14                90.00000
   62 Bend                    13    12    15                90.00000
   63 Bend                    14    10    15                90.00000
   64 Bend                    14    10    16                90.00000
   65 Bend                    14    11    16                90.00000
   66 Bend                    14    12    15                90.00000
   67 Bend                    15     9    16                90.00000
   68 Bend                    15    10    16                90.00000
   69 Torsion                  1     9    13     5           0.00000
   70 Torsion                  1     9    13    11        -135.00000
   71 Torsion                  1     9    13    12         135.00000
   72 Torsion                  1     9    15     7           0.00000
   73 Torsion                  1     9    15    10         135.00000
   74 Torsion                  1     9    15    12        -135.00000
   75 Torsion                  1     9    16     8           0.00000
   76 Torsion                  1     9    16    10        -135.00000
   77 Torsion                  1     9    16    11         135.00000
   78 Torsion                  2    10    14     6           0.00000
   79 Torsion                  2    10    14    11         135.00000
   80 Torsion                  2    10    14    12        -135.00000
   81 Torsion                  2    10    15     7           0.00000
   82 Torsion                  2    10    15     9        -135.00000
   83 Torsion                  2    10    15    12         135.00000
   84 Torsion                  2    10    16     8           0.00000
   85 Torsion                  2    10    16     9         135.00000
   86 Torsion                  2    10    16    11        -135.00000
   87 Torsion                  3    11    13     5           0.00000
   88 Torsion                  3    11    13     9         135.00000
   89 Torsion                  3    11    13    12        -135.00000
   90 Torsion                  3    11    14     6           0.00000
   91 Torsion                  3    11    14    10        -135.00000
   92 Torsion                  3    11    14    12         135.00000
   93 Torsion                  3    11    16     8           0.00000
   94 Torsion                  3    11    16     9        -135.00000
   95 Torsion                  3    11    16    10         135.00000
   96 Torsion                  4    12    13     5           0.00000
   97 Torsion                  4    12    13     9        -135.00000
   98 Torsion                  4    12    13    11         135.00000
   99 Torsion                  4    12    14     6           0.00000
  100 Torsion                  4    12    14    10         135.00000
  101 Torsion                  4    12    14    11        -135.00000
  102 Torsion                  4    12    15     7           0.00000
  103 Torsion                  4    12    15     9         135.00000
  104 Torsion                  4    12    15    10        -135.00000
  105 Torsion                  5    13     9    15        -135.00000
  106 Torsion                  5    13     9    16         135.00000
  107 Torsion                  5    13    11    14         135.00000
  108 Torsion                  5    13    11    16        -135.00000
  109 Torsion                  5    13    12    14        -135.00000
  110 Torsion                  5    13    12    15         135.00000
  111 Torsion                  6    14    10    15         135.00000
  112 Torsion                  6    14    10    16        -135.00000
  113 Torsion                  6    14    11    13        -135.00000
  114 Torsion                  6    14    11    16         135.00000
  115 Torsion                  6    14    12    13         135.00000
  116 Torsion                  6    14    12    15        -135.00000
  117 Torsion                  7    15     9    13         135.00000
  118 Torsion                  7    15     9    16        -135.00000
  119 Torsion                  7    15    10    14        -135.00000
  120 Torsion                  7    15    10    16         135.00000
  121 Torsion                  7    15    12    13        -135.00000
  122 Torsion                  7    15    12    14         135.00000
  123 Torsion                  8    16     9    13        -135.00000
  124 Torsion                  8    16     9    15         135.00000
  125 Torsion                  8    16    10    14         135.00000
  126 Torsion                  8    16    10    15        -135.00000
  127 Torsion                  8    16    11    13         135.00000
  128 Torsion                  8    16    11    14        -135.00000
  129 Torsion                  9    13    11    14         -90.00000
  130 Torsion                  9    13    11    16           0.00000
  131 Torsion                  9    13    12    14          90.00000
  132 Torsion                  9    13    12    15           0.00000
  133 Torsion                  9    15    10    14          90.00000
  134 Torsion                  9    15    10    16           0.00000
  135 Torsion                  9    15    12    13           0.00000
  136 Torsion                  9    15    12    14         -90.00000
  137 Torsion                  9    16    10    14         -90.00000
  138 Torsion                  9    16    10    15           0.00000
  139 Torsion                  9    16    11    13           0.00000
  140 Torsion                  9    16    11    14          90.00000
  141 Torsion                 10    14    11    13          90.00000
  142 Torsion                 10    14    11    16           0.00000
  143 Torsion                 10    14    12    13         -90.00000
  144 Torsion                 10    14    12    15           0.00000
  145 Torsion                 10    15     9    13         -90.00000
  146 Torsion                 10    15     9    16           0.00000
  147 Torsion                 10    15    12    13          90.00000
  148 Torsion                 10    15    12    14           0.00000
  149 Torsion                 10    16     9    13          90.00000
  150 Torsion                 10    16     9    15           0.00000
  151 Torsion                 10    16    11    13         -90.00000
  152 Torsion                 10    16    11    14           0.00000
  153 Torsion                 11    13     9    15          90.00000
  154 Torsion                 11    13     9    16           0.00000
  155 Torsion                 11    13    12    14           0.00000
  156 Torsion                 11    13    12    15         -90.00000
  157 Torsion                 11    14    10    15         -90.00000
  158 Torsion                 11    14    10    16           0.00000
  159 Torsion                 11    14    12    13           0.00000
  160 Torsion                 11    14    12    15          90.00000
  161 Torsion                 11    16     9    13           0.00000
  162 Torsion                 11    16     9    15         -90.00000
  163 Torsion                 11    16    10    14           0.00000
  164 Torsion                 11    16    10    15          90.00000
  165 Torsion                 12    13     9    15           0.00000
  166 Torsion                 12    13     9    16         -90.00000
  167 Torsion                 12    13    11    14           0.00000
  168 Torsion                 12    13    11    16          90.00000
  169 Torsion                 12    14    10    15           0.00000
  170 Torsion                 12    14    10    16          90.00000
  171 Torsion                 12    14    11    13           0.00000
  172 Torsion                 12    14    11    16         -90.00000
  173 Torsion                 12    15     9    13           0.00000
  174 Torsion                 12    15     9    16          90.00000
  175 Torsion                 12    15    10    14           0.00000
  176 Torsion                 12    15    10    16         -90.00000


            XYZ format geometry
            -------------------
    16
 geometry
 H                     1.41400000     1.41400000     1.41400000
 H                    -1.41400000    -1.41400000     1.41400000
 H                    -1.41400000     1.41400000    -1.41400000
 H                     1.41400000    -1.41400000    -1.41400000
 H                     1.41400000     1.41400000    -1.41400000
 H                    -1.41400000    -1.41400000    -1.41400000
 H                     1.41400000    -1.41400000     1.41400000
 H                    -1.41400000     1.41400000     1.41400000
 C                     0.78980000     0.78980000     0.78980000
 C                    -0.78980000    -0.78980000     0.78980000
 C                    -0.78980000     0.78980000    -0.78980000
 C                     0.78980000    -0.78980000    -0.78980000
 C                     0.78980000     0.78980000    -0.78980000
 C                    -0.78980000    -0.78980000    -0.78980000
 C                     0.78980000    -0.78980000     0.78980000
 C                    -0.78980000     0.78980000     0.78980000

 ==============================================================================
                                internuclear distances
 ------------------------------------------------------------------------------
       center one      |      center two      | atomic units |  angstroms
 ------------------------------------------------------------------------------
    9 C                |   1 H                |     2.04307  |     1.08115
   10 C                |   2 H                |     2.04307  |     1.08115
   11 C                |   3 H                |     2.04307  |     1.08115
   12 C                |   4 H                |     2.04307  |     1.08115
   13 C                |   5 H                |     2.04307  |     1.08115
   13 C                |   9 C                |     2.98501  |     1.57960
   13 C                |  11 C                |     2.98501  |     1.57960
   13 C                |  12 C                |     2.98501  |     1.57960
   14 C                |   6 H                |     2.04307  |     1.08115
   14 C                |  10 C                |     2.98501  |     1.57960
   14 C                |  11 C                |     2.98501  |     1.57960
   14 C                |  12 C                |     2.98501  |     1.57960
   15 C                |   7 H                |     2.04307  |     1.08115
   15 C                |   9 C                |     2.98501  |     1.57960
   15 C                |  10 C                |     2.98501  |     1.57960
   15 C                |  12 C                |     2.98501  |     1.57960
   16 C                |   8 H                |     2.04307  |     1.08115
   16 C                |   9 C                |     2.98501  |     1.57960
   16 C                |  10 C                |     2.98501  |     1.57960
   16 C                |  11 C                |     2.98501  |     1.57960
 ------------------------------------------------------------------------------
                         number of included internuclear distances:         20
 ==============================================================================



 ==============================================================================
                                 internuclear angles
 ------------------------------------------------------------------------------
        center 1       |       center 2       |       center 3       |  degrees
 ------------------------------------------------------------------------------
    1 H                |   9 C                |  13 C                |   125.26
    1 H                |   9 C                |  15 C                |   125.26
    1 H                |   9 C                |  16 C                |   125.26
   13 C                |   9 C                |  15 C                |    90.00
   13 C                |   9 C                |  16 C                |    90.00
   15 C                |   9 C                |  16 C                |    90.00
    2 H                |  10 C                |  14 C                |   125.26
    2 H                |  10 C                |  15 C                |   125.26
    2 H                |  10 C                |  16 C                |   125.26
   14 C                |  10 C                |  15 C                |    90.00
   14 C                |  10 C                |  16 C                |    90.00
   15 C                |  10 C                |  16 C                |    90.00
    3 H                |  11 C                |  13 C                |   125.26
    3 H                |  11 C                |  14 C                |   125.26
    3 H                |  11 C                |  16 C                |   125.26
   13 C                |  11 C                |  14 C                |    90.00
   13 C                |  11 C                |  16 C                |    90.00
   14 C                |  11 C                |  16 C                |    90.00
    4 H                |  12 C                |  13 C                |   125.26
    4 H                |  12 C                |  14 C                |   125.26
    4 H                |  12 C                |  15 C                |   125.26
   13 C                |  12 C                |  14 C                |    90.00
   13 C                |  12 C                |  15 C                |    90.00
   14 C                |  12 C                |  15 C                |    90.00
    5 H                |  13 C                |   9 C                |   125.26
    5 H                |  13 C                |  11 C                |   125.26
    5 H                |  13 C                |  12 C                |   125.26
    9 C                |  13 C                |  11 C                |    90.00
    9 C                |  13 C                |  12 C                |    90.00
   11 C                |  13 C                |  12 C                |    90.00
    6 H                |  14 C                |  10 C                |   125.26
    6 H                |  14 C                |  11 C                |   125.26
    6 H                |  14 C                |  12 C                |   125.26
   10 C                |  14 C                |  11 C                |    90.00
   10 C                |  14 C                |  12 C                |    90.00
   11 C                |  14 C                |  12 C                |    90.00
    7 H                |  15 C                |   9 C                |   125.26
    7 H                |  15 C                |  10 C                |   125.26
    7 H                |  15 C                |  12 C                |   125.26
    9 C                |  15 C                |  10 C                |    90.00
    9 C                |  15 C                |  12 C                |    90.00
   10 C                |  15 C                |  12 C                |    90.00
    8 H                |  16 C                |   9 C                |   125.26
    8 H                |  16 C                |  10 C                |   125.26
    8 H                |  16 C                |  11 C                |   125.26
    9 C                |  16 C                |  10 C                |    90.00
    9 C                |  16 C                |  11 C                |    90.00
   10 C                |  16 C                |  11 C                |    90.00
 ------------------------------------------------------------------------------
                            number of included internuclear angles:         48
 ==============================================================================



  library name resolved from: environment
  library file name is: </home/dasha/bin/nwchem-6.6/src/basis/libraries/>
  
                      Basis "ao basis" -> "" (spherical)
                      -----
  H (Hydrogen)
  ------------
            Exponent  Coefficients 
       -------------- ---------------------------------------------------------
  1 S  1.30100000E+01  0.019685
  1 S  1.96200000E+00  0.137977
  1 S  4.44600000E-01  0.478148

  2 S  1.22000000E-01  1.000000

  3 S  2.97400000E-02  1.000000

  4 P  7.27000000E-01  1.000000

  5 P  1.41000000E-01  1.000000

  C (Carbon)
  ----------
            Exponent  Coefficients 
       -------------- ---------------------------------------------------------
  1 S  6.66500000E+03  0.000692
  1 S  1.00000000E+03  0.005329
  1 S  2.28000000E+02  0.027077
  1 S  6.47100000E+01  0.101718
  1 S  2.10600000E+01  0.274740
  1 S  7.49500000E+00  0.448564
  1 S  2.79700000E+00  0.285074
  1 S  5.21500000E-01  0.015204

  2 S  6.66500000E+03 -0.000146
  2 S  1.00000000E+03 -0.001154
  2 S  2.28000000E+02 -0.005725
  2 S  6.47100000E+01 -0.023312
  2 S  2.10600000E+01 -0.063955
  2 S  7.49500000E+00 -0.149981
  2 S  2.79700000E+00 -0.127262
  2 S  5.21500000E-01  0.544529

  3 S  1.59600000E-01  1.000000

  4 S  4.69000000E-02  1.000000

  5 P  9.43900000E+00  0.038109
  5 P  2.00200000E+00  0.209480
  5 P  5.45600000E-01  0.508557

  6 P  1.51700000E-01  1.000000

  7 P  4.04100000E-02  1.000000

  8 D  5.50000000E-01  1.000000

  9 D  1.51000000E-01  1.000000



 Summary of "ao basis" -> "" (spherical)
 ------------------------------------------------------------------------------
       Tag                 Description            Shells   Functions and Types
 ---------------- ------------------------------  ------  ---------------------
 H                        aug-cc-pVDZ                5        9   3s2p
 C                        aug-cc-pVDZ                9       23   4s3p2d




                           NWChem Geometry Optimization
                           ----------------------------




                   cubane MP2/aug-cc-pVDZ geometry optimization


 maximum gradient threshold         (gmax) =   0.000450
 rms gradient threshold             (grms) =   0.000300
 maximum cartesian step threshold   (xmax) =   0.001800
 rms cartesian step threshold       (xrms) =   0.001200
 fixed trust radius                (trust) =   0.300000
 maximum step size to saddle      (sadstp) =   0.100000
 energy precision                  (eprec) =   1.0D-07
 maximum number of steps          (nptopt) =   20
 initial hessian option           (inhess) =    0
 line search option               (linopt) =    1
 hessian update option            (modupd) =    1
 saddle point option              (modsad) =    0
 initial eigen-mode to follow     (moddir) =    0
 initial variable to follow       (vardir) =    0
 follow first negative mode     (firstneg) =    T
 apply conjugacy                    (opcg) =    F
 source of zmatrix                         =   autoz   


          -------------------
          Energy Minimization
          -------------------


 Names of Z-matrix variables 
    1              2              3              4              5         
    6              7              8              9             10         
   11             12             13             14             15         
   16             17             18             19             20         
   21             22             23             24             25         
   26             27             28             29             30         
   31             32             33             34             35         
   36             37             38             39             40         
   41             42             43             44             45         
   46             47             48             49             50         
   51             52             53             54             55         
   56             57             58             59             60         
   61             62             63             64             65         
   66             67             68             69             70         
   71             72             73             74             75         
   76             77             78             79             80         
   81             82             83             84             85         
   86             87             88             89             90         
   91             92             93             94             95         
   96             97             98             99            100         
  101            102            103            104            105         
  106            107            108            109            110         
  111            112            113            114            115         
  116            117            118            119            120         
  121            122            123            124            125         
  126            127            128            129            130         
  131            132            133            134            135         
  136            137            138            139            140         
  141            142            143            144            145         
  146            147            148            149            150         
  151            152            153            154            155         
  156            157            158            159            160         
  161            162            163            164            165         
  166            167            168            169            170         
  171            172            173            174            175         
  176         

 Variables with the same non-blank name are constrained to be equal


 Using diagonal initial Hessian 
 Scaling for Hessian diagonals: bonds = 1.00  angles = 0.25  torsions = 0.10

          --------
          Step   0
          --------


                         Geometry "geometry" -> "geometry"
                         ---------------------------------

 Output coordinates in angstroms (scale by  1.889725989 to convert to a.u.)

  No.       Tag          Charge          X              Y              Z
 ---- ---------------- ---------- -------------- -------------- --------------
    1 H                    1.0000     1.41400000     1.41400000     1.41400000
    2 H                    1.0000    -1.41400000    -1.41400000     1.41400000
    3 H                    1.0000    -1.41400000     1.41400000    -1.41400000
    4 H                    1.0000     1.41400000    -1.41400000    -1.41400000
    5 H                    1.0000     1.41400000     1.41400000    -1.41400000
    6 H                    1.0000    -1.41400000    -1.41400000    -1.41400000
    7 H                    1.0000     1.41400000    -1.41400000     1.41400000
    8 H                    1.0000    -1.41400000     1.41400000     1.41400000
    9 C                    6.0000     0.78980000     0.78980000     0.78980000
   10 C                    6.0000    -0.78980000    -0.78980000     0.78980000
   11 C                    6.0000    -0.78980000     0.78980000    -0.78980000
   12 C                    6.0000     0.78980000    -0.78980000    -0.78980000
   13 C                    6.0000     0.78980000     0.78980000    -0.78980000
   14 C                    6.0000    -0.78980000    -0.78980000    -0.78980000
   15 C                    6.0000     0.78980000    -0.78980000     0.78980000
   16 C                    6.0000    -0.78980000     0.78980000     0.78980000

      Atomic Mass 
      ----------- 

      H                  1.007825
      C                 12.000000


 Effective nuclear repulsion energy (a.u.)     365.3953687263

            Nuclear Dipole moment (a.u.) 
            ----------------------------
        X                 Y               Z
 ---------------- ---------------- ----------------
     0.0000000000     0.0000000000     0.0000000000

      Symmetry information
      --------------------

 Group name              Oh       
 Group number             44
 Group order              48
 No. of unique centers     2

      Symmetry unique atoms

     1    9

                                 NWChem SCF Module
                                 -----------------


                   cubane MP2/aug-cc-pVDZ geometry optimization



  ao basis        = "ao basis"
  functions       =   256
  atoms           =    16
  closed shells   =    28
  open shells     =     0
  charge          =   0.00
  wavefunction    = RHF 
  input vectors   = atomic
  output vectors  = ./cubane.movecs
  use symmetry    = T
  symmetry adapt  = T


 Summary of "ao basis" -> "ao basis" (spherical)
 ------------------------------------------------------------------------------
       Tag                 Description            Shells   Functions and Types
 ---------------- ------------------------------  ------  ---------------------
 H                        aug-cc-pVDZ                5        9   3s2p
 C                        aug-cc-pVDZ                9       23   4s3p2d


      Symmetry analysis of basis
      --------------------------

        a1g        14
        a1u         0
        a2g         0
        a2u        14
        eg         18
        eu         18
        t1g        27
        t1u        69
        t2g        69
        t2u        27


 Forming initial guess at       0.6s


 !! The overlap matrix has   1 vectors deemed linearly dependent with
    eigenvalues:
 8.69D-07


      Superposition of Atomic Density Guess
      -------------------------------------

 Sum of atomic energies:        -305.33085258

      Non-variational initial energy
      ------------------------------

 Total energy =    -311.757490
 1-e energy   =   -1133.326128
 2-e energy   =     456.173268
 HOMO         =      -0.297185
 LUMO         =       0.015871


      Symmetry analysis of molecular orbitals - initial
      -------------------------------------------------

  Numbering of irreducible representations: 

     1 a1g         2 a1u         3 a2g         4 a2u         5 eg      
     6 eu          7 t1g         8 t1u         9 t2g        10 t2u     

  Orbital symmetries:

     1 a1g         2 t1u         3 t1u         4 t1u         5 t2g     
     6 t2g         7 t2g         8 a2u         9 a1g        10 t1u     
    11 t1u        12 t1u        13 t2g        14 t2g        15 t2g     
    16 a1g        17 a2u        18 eg         19 eg         20 t1u     
    21 t1u        22 t1u        23 t2u        24 t2u        25 t2u     
    26 t2g        27 t2g        28 t2g        29 t1u        30 t1u     
    31 t1u        32 a1g        33 t2g        34 t2g        35 t2g     
    36 t1u        37 t1u        38 t1u     


 Starting SCF solution at       5.3s



 ----------------------------------------------
         Quadratically convergent ROHF

 Convergence threshold     :          1.000E-06
 Maximum no. of iterations :           30
 Final Fock-matrix accuracy:          1.000E-10
 ----------------------------------------------


              iter       energy          gnorm     gmax       time
             ----- ------------------- --------- --------- --------
                 1     -307.3368242576  9.54D-01  2.53D-01     10.6
                 2     -307.4149295048  2.94D-01  5.26D-02     15.8
                 3     -307.4228698855  8.99D-03  1.41D-03     29.7
                 4     -307.4228799979  1.34D-05  3.63D-06     52.1
                 5     -307.4228799979  1.41D-06  3.34D-07     74.8
                 6     -307.4228799979  5.85D-08  1.13D-08     93.1


       Final RHF  results 
       ------------------ 

         Total SCF energy =   -307.422879997900
      One-electron energy =  -1139.990831045470
      Two-electron energy =    467.172582321241
 Nuclear repulsion energy =    365.395368726330

        Time for solution =     87.7s



       Symmetry analysis of molecular orbitals - final
       -----------------------------------------------

  Numbering of irreducible representations: 

     1 a1g         2 a1u         3 a2g         4 a2u         5 eg      
     6 eu          7 t1g         8 t1u         9 t2g        10 t2u     

  Orbital symmetries:

     1 a1g         2 t1u         3 t1u         4 t1u         5 t2g     
     6 t2g         7 t2g         8 a2u         9 a1g        10 t1u     
    11 t1u        12 t1u        13 t2g        14 t2g        15 t2g     
    16 a1g        17 a2u        18 t1u        19 t1u        20 t1u     
    21 eg         22 eg         23 t2u        24 t2u        25 t2u     
    26 t2g        27 t2g        28 t2g        29 a1g        30 t1u     
    31 t1u        32 t1u        33 t2g        34 t2g        35 t2g     
    36 a2u        37 t1u        38 t1u     

             Final eigenvalues
             -----------------

              1      
    1  -11.2278
    2  -11.2273
    3  -11.2273
    4  -11.2273
    5  -11.2269
    6  -11.2269
    7  -11.2269
    8  -11.2264
    9   -1.2336
   10   -0.9739
   11   -0.9739
   12   -0.9739
   13   -0.7693
   14   -0.7693
   15   -0.7693
   16   -0.7082
   17   -0.6461
   18   -0.5790
   19   -0.5790
   20   -0.5790
   21   -0.5718
   22   -0.5718
   23   -0.3866
   24   -0.3866
   25   -0.3866
   26   -0.3827
   27   -0.3827
   28   -0.3827
   29    0.0338
   30    0.0427
   31    0.0427
   32    0.0427
   33    0.0579
   34    0.0579
   35    0.0579
   36    0.0848
   37    0.1174
   38    0.1174

                       ROHF Final Molecular Orbital Analysis
                       -------------------------------------

 Vector    9  Occ=2.000000D+00  E=-1.233562D+00  Symmetry=a1g
              MO Center=  2.1D-17,  2.8D-16,  7.6D-17, r^2= 1.7D+00
   Bfn.  Coefficient  Atom+Function         Bfn.  Coefficient  Atom+Function  
  ----- ------------  ---------------      ----- ------------  ---------------
    74      0.133010   9 C  s                97      0.133010  10 C  s         
   120      0.133010  11 C  s               143      0.133010  12 C  s         
   166      0.133010  13 C  s               189      0.133010  14 C  s         
   212      0.133010  15 C  s               235      0.133010  16 C  s         

 Vector   10  Occ=2.000000D+00  E=-9.739120D-01  Symmetry=t1u
              MO Center=  4.2D-17,  8.3D-17, -1.7D-17, r^2= 2.7D+00
   Bfn.  Coefficient  Atom+Function         Bfn.  Coefficient  Atom+Function  
  ----- ------------  ---------------      ----- ------------  ---------------
   120      0.220141  11 C  s               212     -0.220141  15 C  s         

 Vector   11  Occ=2.000000D+00  E=-9.739120D-01  Symmetry=t1u
              MO Center=  1.3D-16,  2.2D-16, -8.3D-17, r^2= 2.7D+00
   Bfn.  Coefficient  Atom+Function         Bfn.  Coefficient  Atom+Function  
  ----- ------------  ---------------      ----- ------------  ---------------
    97     -0.192415  10 C  s               166      0.192415  13 C  s         
    74      0.178627   9 C  s               189     -0.178627  14 C  s         

 Vector   12  Occ=2.000000D+00  E=-9.739120D-01  Symmetry=t1u
              MO Center=  1.4D-16,  3.5D-17,  1.5D-16, r^2= 2.7D+00
   Bfn.  Coefficient  Atom+Function         Bfn.  Coefficient  Atom+Function  
  ----- ------------  ---------------      ----- ------------  ---------------
   143      0.195478  12 C  s               235     -0.195478  16 C  s         

 Vector   13  Occ=2.000000D+00  E=-7.693049D-01  Symmetry=t2g
              MO Center= -6.3D-14, -4.1D-14,  1.5D-13, r^2= 4.1D+00
   Bfn.  Coefficient  Atom+Function         Bfn.  Coefficient  Atom+Function  
  ----- ------------  ---------------      ----- ------------  ---------------
    99      0.486646  10 C  s               168      0.486646  13 C  s         
   145     -0.268588  12 C  s               237     -0.268588  16 C  s         
    76     -0.231066   9 C  s               191     -0.231066  14 C  s         
    97     -0.212336  10 C  s               166     -0.212336  13 C  s         
    10     -0.194130   2 H  s                37     -0.194130   5 H  s         

 Vector   14  Occ=2.000000D+00  E=-7.693049D-01  Symmetry=t2g
              MO Center=  8.3D-17, -4.3D-16, -2.8D-16, r^2= 4.1D+00
   Bfn.  Coefficient  Atom+Function         Bfn.  Coefficient  Atom+Function  
  ----- ------------  ---------------      ----- ------------  ---------------
    76      0.466353   9 C  s               191      0.466353  14 C  s         
   145     -0.305082  12 C  s               237     -0.305082  16 C  s         
   122     -0.220207  11 C  s               214     -0.220207  15 C  s         
    74     -0.203481   9 C  s               189     -0.203481  14 C  s         
     1     -0.186035   1 H  s                46     -0.186035   6 H  s         

 Vector   15  Occ=2.000000D+00  E=-7.693049D-01  Symmetry=t2g
              MO Center= -3.9D-16,  2.5D-16,  2.8D-17, r^2= 4.1D+00
   Bfn.  Coefficient  Atom+Function         Bfn.  Coefficient  Atom+Function  
  ----- ------------  ---------------      ----- ------------  ---------------
   122      0.472475  11 C  s               214      0.472475  15 C  s         
   145     -0.326617  12 C  s               237     -0.326617  16 C  s         
   120     -0.206153  11 C  s               212     -0.206153  15 C  s         
    19     -0.188477   3 H  s                55     -0.188477   7 H  s         
    20     -0.177143   3 H  s                56     -0.177143   7 H  s         

 Vector   16  Occ=2.000000D+00  E=-7.081878D-01  Symmetry=a1g
              MO Center=  1.9D-16, -3.5D-17,  2.4D-16, r^2= 4.4D+00
   Bfn.  Coefficient  Atom+Function         Bfn.  Coefficient  Atom+Function  
  ----- ------------  ---------------      ----- ------------  ---------------
     1      0.138531   1 H  s                10      0.138531   2 H  s         
    19      0.138531   3 H  s                28      0.138531   4 H  s         
    37      0.138531   5 H  s                46      0.138531   6 H  s         
    55      0.138531   7 H  s                64      0.138531   8 H  s         

 Vector   17  Occ=2.000000D+00  E=-6.461191D-01  Symmetry=a2u
              MO Center=  6.1D-15,  2.0D-15, -3.4D-15, r^2= 5.1D+00
   Bfn.  Coefficient  Atom+Function         Bfn.  Coefficient  Atom+Function  
  ----- ------------  ---------------      ----- ------------  ---------------
     1      0.162027   1 H  s                10      0.162027   2 H  s         
    19      0.162027   3 H  s                28      0.162027   4 H  s         
    37     -0.162027   5 H  s                46     -0.162027   6 H  s         
    55     -0.162027   7 H  s                64     -0.162027   8 H  s         
    80      0.150070   9 C  px               81      0.150070   9 C  py        

 Vector   18  Occ=2.000000D+00  E=-5.789983D-01  Symmetry=t1u
              MO Center= -9.8D-15, -6.2D-15,  2.0D-14, r^2= 4.2D+00
   Bfn.  Coefficient  Atom+Function         Bfn.  Coefficient  Atom+Function  
  ----- ------------  ---------------      ----- ------------  ---------------
    11      0.233292   2 H  s                38     -0.233292   5 H  s         
    99     -0.222673  10 C  s               168      0.222673  13 C  s         
    10      0.206782   2 H  s                37     -0.206782   5 H  s         
     2     -0.179087   1 H  s                47      0.179087   6 H  s         
    76      0.170935   9 C  s               191     -0.170935  14 C  s         

 Vector   19  Occ=2.000000D+00  E=-5.789983D-01  Symmetry=t1u
              MO Center=  3.3D-15,  5.7D-15, -4.9D-15, r^2= 4.2D+00
   Bfn.  Coefficient  Atom+Function         Bfn.  Coefficient  Atom+Function  
  ----- ------------  ---------------      ----- ------------  ---------------
    29      0.254290   4 H  s                65     -0.254290   8 H  s         
   145     -0.242716  12 C  s               237      0.242716  16 C  s         
    28      0.225395   4 H  s                64     -0.225395   8 H  s         
   147     -0.165382  12 C  py              239     -0.165382  16 C  py        
    11     -0.157905   2 H  s                38      0.157905   5 H  s         

 Vector   20  Occ=2.000000D+00  E=-5.789983D-01  Symmetry=t1u
              MO Center= -4.3D-16,  2.8D-17,  3.8D-17, r^2= 4.2D+00
   Bfn.  Coefficient  Atom+Function         Bfn.  Coefficient  Atom+Function  
  ----- ------------  ---------------      ----- ------------  ---------------
    20      0.252418   3 H  s                56     -0.252418   7 H  s         
   122     -0.240929  11 C  s               214      0.240929  15 C  s         
    19      0.223735   3 H  s                55     -0.223735   7 H  s         
     2     -0.178278   1 H  s                47      0.178278   6 H  s         
    76      0.170164   9 C  s               124      0.169520  11 C  py        

 Vector   21  Occ=2.000000D+00  E=-5.718288D-01  Symmetry=eg
              MO Center=  5.6D-17,  1.2D-16,  1.4D-17, r^2= 2.6D+00
   Bfn.  Coefficient  Atom+Function         Bfn.  Coefficient  Atom+Function  
  ----- ------------  ---------------      ----- ------------  ---------------
    77      0.161884   9 C  px              100     -0.161884  10 C  px        
   123     -0.161884  11 C  px              146      0.161884  12 C  px        
   169      0.161884  13 C  px              192     -0.161884  14 C  px        
   215      0.161884  15 C  px              238     -0.161884  16 C  px        

 Vector   22  Occ=2.000000D+00  E=-5.718288D-01  Symmetry=eg
              MO Center=  8.3D-17,  4.2D-17, -6.9D-17, r^2= 2.6D+00
   Bfn.  Coefficient  Atom+Function         Bfn.  Coefficient  Atom+Function  
  ----- ------------  ---------------      ----- ------------  ---------------
    79      0.154050   9 C  pz              102      0.154050  10 C  pz        
   125     -0.154050  11 C  pz              148     -0.154050  12 C  pz        
   171     -0.154050  13 C  pz              194     -0.154050  14 C  pz        
   217      0.154050  15 C  pz              240      0.154050  16 C  pz        

 Vector   23  Occ=2.000000D+00  E=-3.866262D-01  Symmetry=t2u
              MO Center=  2.4D-16,  1.4D-17, -8.3D-17, r^2= 2.9D+00
   Bfn.  Coefficient  Atom+Function         Bfn.  Coefficient  Atom+Function  
  ----- ------------  ---------------      ----- ------------  ---------------
    79      0.198399   9 C  pz              102     -0.198399  10 C  pz        
   171     -0.198399  13 C  pz              194      0.198399  14 C  pz        
    77     -0.173177   9 C  px              146      0.173177  12 C  px        
   192     -0.173177  14 C  px              238      0.173177  16 C  px        

 Vector   24  Occ=2.000000D+00  E=-3.866262D-01  Symmetry=t2u
              MO Center=  0.0D+00,  8.3D-17,  1.2D-16, r^2= 2.9D+00
   Bfn.  Coefficient  Atom+Function         Bfn.  Coefficient  Atom+Function  
  ----- ------------  ---------------      ----- ------------  ---------------
   125      0.200878  11 C  pz              148     -0.200878  12 C  pz        
   217      0.200878  15 C  pz              240     -0.200878  16 C  pz        
   101     -0.168678  10 C  py              147      0.168678  12 C  py        
   170     -0.168678  13 C  py              239      0.168678  16 C  py        
   128      0.151204  11 C  pz              151     -0.151204  12 C  pz        

 Vector   25  Occ=2.000000D+00  E=-3.866262D-01  Symmetry=t2u
              MO Center= -8.3D-17, -8.3D-17,  1.4D-16, r^2= 2.9D+00
   Bfn.  Coefficient  Atom+Function         Bfn.  Coefficient  Atom+Function  
  ----- ------------  ---------------      ----- ------------  ---------------
    78      0.181872   9 C  py              124     -0.181872  11 C  py        
   193      0.181872  14 C  py              216     -0.181872  15 C  py        
   100      0.172429  10 C  px              123     -0.172429  11 C  px        
   169      0.172429  13 C  px              215     -0.172429  15 C  px        

 Vector   26  Occ=2.000000D+00  E=-3.826888D-01  Symmetry=t2g
              MO Center= -2.8D-16,  7.6D-16,  2.8D-16, r^2= 3.5D+00
   Bfn.  Coefficient  Atom+Function         Bfn.  Coefficient  Atom+Function  
  ----- ------------  ---------------      ----- ------------  ---------------
    99      0.836401  10 C  s               168      0.836401  13 C  s         
   145     -0.807314  12 C  s               237     -0.807314  16 C  s         
    11     -0.309528   2 H  s                38     -0.309528   5 H  s         
    29      0.298763   4 H  s                65      0.298763   8 H  s         
   122     -0.260323  11 C  s               214     -0.260323  15 C  s         

 Vector   27  Occ=2.000000D+00  E=-3.826888D-01  Symmetry=t2g
              MO Center=  3.8D-16, -4.6D-16,  1.2D-15, r^2= 3.5D+00
   Bfn.  Coefficient  Atom+Function         Bfn.  Coefficient  Atom+Function  
  ----- ------------  ---------------      ----- ------------  ---------------
   122      0.970434  11 C  s               214      0.970434  15 C  s         
   145     -0.650482  12 C  s               237     -0.650482  16 C  s         
    20     -0.359129   3 H  s                56     -0.359129   7 H  s         
    99     -0.328063  10 C  s               168     -0.328063  13 C  s         
    29      0.240725   4 H  s                65      0.240725   8 H  s         

 Vector   28  Occ=2.000000D+00  E=-3.826888D-01  Symmetry=t2g
              MO Center= -2.9D-16, -7.8D-16,  1.4D-16, r^2= 3.5D+00
   Bfn.  Coefficient  Atom+Function         Bfn.  Coefficient  Atom+Function  
  ----- ------------  ---------------      ----- ------------  ---------------
    76      1.025127   9 C  s               191      1.025127  14 C  s         
    99     -0.545186  10 C  s               168     -0.545186  13 C  s         
     2     -0.379370   1 H  s                47     -0.379370   6 H  s         
   122     -0.308075  11 C  s               214     -0.308075  15 C  s         
     1     -0.201265   1 H  s                11      0.201758   2 H  s         

 Vector   29  Occ=0.000000D+00  E= 3.380567D-02  Symmetry=a1g
              MO Center= -1.3D-14, -9.8D-15, -5.8D-15, r^2= 2.9D+01
   Bfn.  Coefficient  Atom+Function         Bfn.  Coefficient  Atom+Function  
  ----- ------------  ---------------      ----- ------------  ---------------
    76      1.375640   9 C  s                99      1.375640  10 C  s         
   122      1.375640  11 C  s               145      1.375640  12 C  s         
   168      1.375640  13 C  s               191      1.375640  14 C  s         
   214      1.375640  15 C  s               237      1.375640  16 C  s         
     3     -1.232665   1 H  s                12     -1.232665   2 H  s         

 Vector   30  Occ=0.000000D+00  E= 4.270163D-02  Symmetry=t1u
              MO Center=  8.9D-14, -3.1D-14,  8.2D-14, r^2= 3.1D+01
   Bfn.  Coefficient  Atom+Function         Bfn.  Coefficient  Atom+Function  
  ----- ------------  ---------------      ----- ------------  ---------------
    21      3.215840   3 H  s                57     -3.215840   7 H  s         
     3     -2.838322   1 H  s                48      2.838322   6 H  s         
   122      2.170926  11 C  s               214     -2.170926  15 C  s         
    76     -1.916073   9 C  s               191      1.916073  14 C  s         
   129      1.679726  11 C  px              221      1.679726  15 C  px        

 Vector   31  Occ=0.000000D+00  E= 4.270163D-02  Symmetry=t1u
              MO Center=  3.9D-15,  5.1D-14,  2.2D-15, r^2= 3.1D+01
   Bfn.  Coefficient  Atom+Function         Bfn.  Coefficient  Atom+Function  
  ----- ------------  ---------------      ----- ------------  ---------------
    12     -2.405128   2 H  s                39      2.405128   5 H  s         
     3      2.388893   1 H  s                48     -2.388893   6 H  s         
    21      1.881012   3 H  s                57     -1.881012   7 H  s         
    30     -1.864777   4 H  s                66      1.864777   8 H  s         
    99     -1.623636  10 C  s               168      1.623636  13 C  s         

 Vector   32  Occ=0.000000D+00  E= 4.270163D-02  Symmetry=t1u
              MO Center=  3.5D-13, -2.5D-13, -3.9D-13, r^2= 3.1D+01
   Bfn.  Coefficient  Atom+Function         Bfn.  Coefficient  Atom+Function  
  ----- ------------  ---------------      ----- ------------  ---------------
    30      3.208757   4 H  s                66     -3.208757   8 H  s         
    12     -2.844832   2 H  s                39      2.844832   5 H  s         
   145      2.166144  12 C  s               237     -2.166144  16 C  s         
    99     -1.920468  10 C  s               168      1.920468  13 C  s         
   154      1.679583  12 C  pz              246      1.679583  16 C  pz        

 Vector   33  Occ=0.000000D+00  E= 5.789103D-02  Symmetry=t2g
              MO Center= -2.6D-13,  3.7D-13,  2.0D-13, r^2= 3.7D+01
   Bfn.  Coefficient  Atom+Function         Bfn.  Coefficient  Atom+Function  
  ----- ------------  ---------------      ----- ------------  ---------------
   122     18.539566  11 C  s               214     18.539566  15 C  s         
    76     -9.581018   9 C  s               191     -9.581018  14 C  s         
    21      7.643712   3 H  s                57      7.643712   7 H  s         
   145     -5.448694  12 C  s               237     -5.448694  16 C  s         
   130     -5.008473  11 C  py              222      5.008473  15 C  py        

 Vector   34  Occ=0.000000D+00  E= 5.789103D-02  Symmetry=t2g
              MO Center=  2.0D-13,  1.6D-13, -2.1D-13, r^2= 3.7D+01
   Bfn.  Coefficient  Atom+Function         Bfn.  Coefficient  Atom+Function  
  ----- ------------  ---------------      ----- ------------  ---------------
    99     18.252978  10 C  s               168     18.252978  13 C  s         
   145    -10.470303  12 C  s               237    -10.470303  16 C  s         
    12      7.525554   2 H  s                39      7.525554   5 H  s         
    76     -5.380514   9 C  s               191     -5.380514  14 C  s         
   107      4.969850  10 C  py              176     -4.969850  13 C  py        

 Vector   35  Occ=0.000000D+00  E= 5.789103D-02  Symmetry=t2g
              MO Center= -1.4D-12, -6.1D-13, -3.4D-13, r^2= 3.7D+01
   Bfn.  Coefficient  Atom+Function         Bfn.  Coefficient  Atom+Function  
  ----- ------------  ---------------      ----- ------------  ---------------
    76     15.407570   9 C  s               191     15.407570  14 C  s         
   145    -14.792686  12 C  s               237    -14.792686  16 C  s         
     3      6.352415   1 H  s                48      6.352415   6 H  s         
    30     -6.098904   4 H  s                66     -6.098904   8 H  s         
    83     -4.417821   9 C  px              198      4.417821  14 C  px        

 Vector   36  Occ=0.000000D+00  E= 8.479645D-02  Symmetry=a2u
              MO Center= -2.9D-13,  2.4D-12,  1.9D-12, r^2= 3.7D+01
   Bfn.  Coefficient  Atom+Function         Bfn.  Coefficient  Atom+Function  
  ----- ------------  ---------------      ----- ------------  ---------------
     3      5.082355   1 H  s                12      5.082355   2 H  s         
    21      5.082355   3 H  s                30      5.082355   4 H  s         
    39     -5.082355   5 H  s                48     -5.082355   6 H  s         
    57     -5.082355   7 H  s                66     -5.082355   8 H  s         
    83     -1.504306   9 C  px               84     -1.504306   9 C  py        

 Vector   37  Occ=0.000000D+00  E= 1.173520D-01  Symmetry=t1u
              MO Center=  1.2D-13,  9.5D-14,  2.3D-13, r^2= 2.2D+01
   Bfn.  Coefficient  Atom+Function         Bfn.  Coefficient  Atom+Function  
  ----- ------------  ---------------      ----- ------------  ---------------
   145      9.609671  12 C  s               237     -9.609671  16 C  s         
    76     -6.467451   9 C  s               191      6.467451  14 C  s         
   122     -5.791417  11 C  s               214      5.791417  15 C  s         
    30      3.530606   4 H  s                66     -3.530606   8 H  s         
   153      3.281030  12 C  py              245      3.281030  16 C  py        

 Vector   38  Occ=0.000000D+00  E= 1.173520D-01  Symmetry=t1u
              MO Center= -1.1D-13, -6.3D-13, -2.6D-13, r^2= 2.2D+01
   Bfn.  Coefficient  Atom+Function         Bfn.  Coefficient  Atom+Function  
  ----- ------------  ---------------      ----- ------------  ---------------
    99      8.885290  10 C  s               168     -8.885290  13 C  s         
    76     -7.412340   9 C  s               191      7.412340  14 C  s         
   145     -5.194977  12 C  s               237      5.194977  16 C  s         
   122      3.722027  11 C  s               214     -3.722027  15 C  s         
    12      3.264468   2 H  s                39     -3.264468   5 H  s         

 Vector   39  Occ=0.000000D+00  E= 1.173520D-01  Symmetry=t1u
              MO Center=  1.0D-12,  3.3D-13,  1.1D-13, r^2= 2.2D+01
   Bfn.  Coefficient  Atom+Function         Bfn.  Coefficient  Atom+Function  
  ----- ------------  ---------------      ----- ------------  ---------------
   122      9.146329  11 C  s               214     -9.146329  15 C  s         
    99     -6.714366  10 C  s               168      6.714366  13 C  s         
    76     -5.854795   9 C  s               191      5.854795  14 C  s         
   145      3.422831  12 C  s               237     -3.422831  16 C  s         
    21      3.360374   3 H  s                57     -3.360374   7 H  s         

 Vector   40  Occ=0.000000D+00  E= 1.213881D-01  Symmetry=eg
              MO Center= -2.7D-15, -4.6D-15,  2.2D-15, r^2= 1.6D+01
   Bfn.  Coefficient  Atom+Function         Bfn.  Coefficient  Atom+Function  
  ----- ------------  ---------------      ----- ------------  ---------------
    84      0.349348   9 C  py              107     -0.349348  10 C  py        
   130      0.349348  11 C  py              153     -0.349348  12 C  py        
   176      0.349348  13 C  py              199     -0.349348  14 C  py        
   222     -0.349348  15 C  py              245      0.349348  16 C  py        
    83     -0.278424   9 C  px              106      0.278424  10 C  px        

 Vector   41  Occ=0.000000D+00  E= 1.213881D-01  Symmetry=eg
              MO Center=  1.4D-14, -6.6D-16,  2.2D-14, r^2= 1.6D+01
   Bfn.  Coefficient  Atom+Function         Bfn.  Coefficient  Atom+Function  
  ----- ------------  ---------------      ----- ------------  ---------------
    85      0.362444   9 C  pz              108      0.362444  10 C  pz        
   131     -0.362444  11 C  pz              154     -0.362444  12 C  pz        
   177     -0.362444  13 C  pz              200     -0.362444  14 C  pz        
   223      0.362444  15 C  pz              246      0.362444  16 C  pz        
    83     -0.242644   9 C  px              106      0.242644  10 C  px        

 Vector   42  Occ=0.000000D+00  E= 1.500704D-01  Symmetry=t2g
              MO Center= -1.3D-13,  1.9D-13, -1.0D-12, r^2= 2.9D+01
   Bfn.  Coefficient  Atom+Function         Bfn.  Coefficient  Atom+Function  
  ----- ------------  ---------------      ----- ------------  ---------------
    99    -40.536781  10 C  s               168    -40.536781  13 C  s         
    76     38.393337   9 C  s               191     38.393337  14 C  s         
   145     11.134643  12 C  s               237     11.134643  16 C  s         
   108      9.104924  10 C  pz              177     -9.104924  13 C  pz        
    85     -8.997198   9 C  pz              122     -8.991198  11 C  s         

 Vector   43  Occ=0.000000D+00  E= 1.500704D-01  Symmetry=t2g
              MO Center= -4.7D-13, -5.5D-13,  2.2D-12, r^2= 2.9D+01
   Bfn.  Coefficient  Atom+Function         Bfn.  Coefficient  Atom+Function  
  ----- ------------  ---------------      ----- ------------  ---------------
   145     43.569484  12 C  s               237     43.569484  16 C  s         
   122    -34.254345  11 C  s               214    -34.254345  15 C  s         
    76    -14.832412   9 C  s               191    -14.832412  14 C  s         
   154      9.158281  12 C  pz              246     -9.158281  16 C  pz        
    30      8.744273   4 H  s                66      8.744273   8 H  s         

 Vector   44  Occ=0.000000D+00  E= 1.500704D-01  Symmetry=t2g
              MO Center= -6.0D-12,  2.9D-12, -4.1D-13, r^2= 2.9D+01
   Bfn.  Coefficient  Atom+Function         Bfn.  Coefficient  Atom+Function  
  ----- ------------  ---------------      ----- ------------  ---------------
   122     35.176325  11 C  s               214     35.176325  15 C  s         
    99    -28.599034  10 C  s               168    -28.599034  13 C  s         
    76    -28.240518   9 C  s               191    -28.240518  14 C  s         
   145     21.663227  12 C  s               237     21.663227  16 C  s         
   129      7.478518  11 C  px              130     -7.446416  11 C  py        

 Vector   45  Occ=0.000000D+00  E= 1.505472D-01  Symmetry=a1g
              MO Center=  3.9D-14,  1.9D-13, -7.7D-14, r^2= 2.4D+01
   Bfn.  Coefficient  Atom+Function         Bfn.  Coefficient  Atom+Function  
  ----- ------------  ---------------      ----- ------------  ---------------
    76      2.556136   9 C  s                99      2.556136  10 C  s         
   122      2.556136  11 C  s               145      2.556136  12 C  s         
   168      2.556136  13 C  s               191      2.556136  14 C  s         
   214      2.556136  15 C  s               237      2.556136  16 C  s         
     3     -1.914771   1 H  s                12     -1.914771   2 H  s         

 Vector   46  Occ=0.000000D+00  E= 1.541781D-01  Symmetry=t2u
              MO Center= -2.3D-12, -1.7D-13,  2.8D-13, r^2= 2.0D+01
   Bfn.  Coefficient  Atom+Function         Bfn.  Coefficient  Atom+Function  
  ----- ------------  ---------------      ----- ------------  ---------------
   106      1.231331  10 C  px              129     -1.231331  11 C  px        
   175      1.231331  13 C  px              221     -1.231331  15 C  px        
   107     -1.103193  10 C  py              153      1.103193  12 C  py        
   176     -1.103193  13 C  py              245      1.103193  16 C  py        
    84      0.972625   9 C  py              130     -0.972625  11 C  py        

 Vector   47  Occ=0.000000D+00  E= 1.541781D-01  Symmetry=t2u
              MO Center=  2.4D-14, -1.3D-12, -3.5D-13, r^2= 2.0D+01
   Bfn.  Coefficient  Atom+Function         Bfn.  Coefficient  Atom+Function  
  ----- ------------  ---------------      ----- ------------  ---------------
    84      1.128347   9 C  py              130     -1.128347  11 C  py        
   199      1.128347  14 C  py              222     -1.128347  15 C  py        
   131     -1.095230  11 C  pz              154      1.095230  12 C  pz        
   223     -1.095230  15 C  pz              246      1.095230  16 C  pz        
    85     -1.013607   9 C  pz              108      1.013607  10 C  pz        

 Vector   48  Occ=0.000000D+00  E= 1.541781D-01  Symmetry=t2u
              MO Center=  6.7D-13, -5.8D-14,  2.2D-13, r^2= 2.0D+01
   Bfn.  Coefficient  Atom+Function         Bfn.  Coefficient  Atom+Function  
  ----- ------------  ---------------      ----- ------------  ---------------
    83      1.229445   9 C  px              152     -1.229445  12 C  px        
   198      1.229445  14 C  px              244     -1.229445  16 C  px        
    85     -1.092722   9 C  pz              108      1.092722  10 C  pz        
   177      1.092722  13 C  pz              200     -1.092722  14 C  pz        
   131      0.985597  11 C  pz              154     -0.985597  12 C  pz        

 Vector   49  Occ=0.000000D+00  E= 1.730207D-01  Symmetry=t1u
              MO Center=  1.4D-12,  6.9D-13, -6.5D-14, r^2= 2.2D+01
   Bfn.  Coefficient  Atom+Function         Bfn.  Coefficient  Atom+Function  
  ----- ------------  ---------------      ----- ------------  ---------------
     3      3.582374   1 H  s                48     -3.582374   6 H  s         
    83     -2.885409   9 C  px              198     -2.885409  14 C  px        
    84     -2.764510   9 C  py              199     -2.764510  14 C  py        
    85     -2.623312   9 C  pz              200     -2.623312  14 C  pz        
    30     -2.177595   4 H  s                66      2.177595   8 H  s         

 Vector   50  Occ=0.000000D+00  E= 1.730207D-01  Symmetry=t1u
              MO Center=  1.7D-12, -1.6D-12,  7.4D-13, r^2= 2.2D+01
   Bfn.  Coefficient  Atom+Function         Bfn.  Coefficient  Atom+Function  
  ----- ------------  ---------------      ----- ------------  ---------------
    21      3.480563   3 H  s                57     -3.480563   7 H  s         
   131      2.862609  11 C  pz              223      2.862609  15 C  pz        
   129      2.597920  11 C  px              221      2.597920  15 C  px        
    30     -2.571779   4 H  s                66      2.571779   8 H  s         
   130     -2.577577  11 C  py              222     -2.577577  15 C  py        

 Vector   51  Occ=0.000000D+00  E= 1.730207D-01  Symmetry=t1u
              MO Center= -2.5D-13,  7.1D-12, -5.2D-12, r^2= 2.2D+01
   Bfn.  Coefficient  Atom+Function         Bfn.  Coefficient  Atom+Function  
  ----- ------------  ---------------      ----- ------------  ---------------
    12      3.749165   2 H  s                39     -3.749165   5 H  s         
   107      2.949098  10 C  py              176      2.949098  13 C  py        
   108     -2.876980  10 C  pz              177     -2.876980  13 C  pz        
   106      2.832345  10 C  px              175      2.832345  13 C  px        
   153     -1.747018  12 C  py              245     -1.747018  16 C  py        

 Vector   52  Occ=0.000000D+00  E= 1.919023D-01  Symmetry=t2g
              MO Center=  2.3D-12, -2.5D-12, -4.8D-13, r^2= 2.5D+01
   Bfn.  Coefficient  Atom+Function         Bfn.  Coefficient  Atom+Function  
  ----- ------------  ---------------      ----- ------------  ---------------
   153     -5.199979  12 C  py              245      5.199979  16 C  py        
   130     -5.130341  11 C  py              222      5.130341  15 C  py        
   152      5.043242  12 C  px              244     -5.043242  16 C  px        
   129      4.973604  11 C  px              221     -4.973604  15 C  px        
    84     -3.618918   9 C  py              199      3.618918  14 C  py        

 Vector   53  Occ=0.000000D+00  E= 1.919023D-01  Symmetry=t2g
              MO Center= -2.7D-12, -2.8D-12,  4.2D-12, r^2= 2.5D+01
   Bfn.  Coefficient  Atom+Function         Bfn.  Coefficient  Atom+Function  
  ----- ------------  ---------------      ----- ------------  ---------------
   106      5.232923  10 C  px              175     -5.232923  13 C  px        
   107      5.093004  10 C  py              176     -5.093004  13 C  py        
    83      5.055027   9 C  px              198     -5.055027  14 C  px        
    84      4.915108   9 C  py              199     -4.915108  14 C  py        
    12      3.709524   2 H  s                39      3.709524   5 H  s         

 Vector   54  Occ=0.000000D+00  E= 1.919023D-01  Symmetry=t2g
              MO Center=  9.6D-13,  4.2D-13, -2.8D-14, r^2= 2.5D+01
   Bfn.  Coefficient  Atom+Function         Bfn.  Coefficient  Atom+Function  
  ----- ------------  ---------------      ----- ------------  ---------------
    85      6.157928   9 C  pz              200     -6.157928  14 C  pz        
   131      6.085142  11 C  pz              223     -6.085142  15 C  pz        
   154      5.981297  12 C  pz              246     -5.981297  16 C  pz        
   108      5.908511  10 C  pz              177     -5.908511  13 C  pz        
     3     -2.757063   1 H  s                48     -2.757063   6 H  s         

 Vector   55  Occ=0.000000D+00  E= 1.921713D-01  Symmetry=t1g
              MO Center=  4.1D-13, -5.0D-13, -6.2D-14, r^2= 2.2D+01
   Bfn.  Coefficient  Atom+Function         Bfn.  Coefficient  Atom+Function  
  ----- ------------  ---------------      ----- ------------  ---------------
    83      5.957085   9 C  px              152     -5.957085  12 C  px        
   198     -5.957085  14 C  px              244      5.957085  16 C  px        
    84     -5.182846   9 C  py              107      5.204565  10 C  py        
   130      5.182846  11 C  py              153     -5.204565  12 C  py        
   176     -5.204565  13 C  py              199      5.182846  14 C  py        

 Vector   56  Occ=0.000000D+00  E= 1.921713D-01  Symmetry=t1g
              MO Center=  1.0D-12,  1.1D-13,  1.6D-12, r^2= 2.2D+01
   Bfn.  Coefficient  Atom+Function         Bfn.  Coefficient  Atom+Function  
  ----- ------------  ---------------      ----- ------------  ---------------
    85      6.213332   9 C  pz              108     -6.213332  10 C  pz        
   177      6.213332  13 C  pz              200     -6.213332  14 C  pz        
   106     -5.815664  10 C  px              129      5.815664  11 C  px        
   175      5.815664  13 C  px              221     -5.815664  15 C  px        
    83     -4.320976   9 C  px              152      4.320976  12 C  px        

 Vector   57  Occ=0.000000D+00  E= 1.921713D-01  Symmetry=t1g
              MO Center=  1.6D-14, -3.6D-13, -7.3D-13, r^2= 2.2D+01
   Bfn.  Coefficient  Atom+Function         Bfn.  Coefficient  Atom+Function  
  ----- ------------  ---------------      ----- ------------  ---------------
   131      6.257496  11 C  pz              154     -6.257496  12 C  pz        
   223     -6.257496  15 C  pz              246      6.257496  16 C  pz        
   107     -5.279133  10 C  py              153      5.279133  12 C  py        
   176      5.279133  13 C  py              245     -5.279133  16 C  py        
    84     -4.967090   9 C  py              130      4.967090  11 C  py        

 Vector   58  Occ=0.000000D+00  E= 2.125497D-01  Symmetry=a2u
              MO Center= -2.3D-13, -2.3D-12, -5.9D-12, r^2= 2.5D+01
   Bfn.  Coefficient  Atom+Function         Bfn.  Coefficient  Atom+Function  
  ----- ------------  ---------------      ----- ------------  ---------------
     3      5.707005   1 H  s                12      5.707005   2 H  s         
    21      5.707005   3 H  s                30      5.707005   4 H  s         
    39     -5.707005   5 H  s                48     -5.707005   6 H  s         
    57     -5.707005   7 H  s                66     -5.707005   8 H  s         
    83     -2.895082   9 C  px               84     -2.895082   9 C  py        

 Vector   59  Occ=0.000000D+00  E= 2.277055D-01  Symmetry=eu
              MO Center= -4.7D-13, -1.5D-12, -3.2D-13, r^2= 2.7D+01
   Bfn.  Coefficient  Atom+Function         Bfn.  Coefficient  Atom+Function  
  ----- ------------  ---------------      ----- ------------  ---------------
    84     19.646606   9 C  py              107    -19.646606  10 C  py        
   130     19.646606  11 C  py              153    -19.646606  12 C  py        
   176    -19.646606  13 C  py              199     19.646606  14 C  py        
   222     19.646606  15 C  py              245    -19.646606  16 C  py        
    83    -17.772715   9 C  px              106     17.772715  10 C  px        

 Vector   60  Occ=0.000000D+00  E= 2.277055D-01  Symmetry=eu
              MO Center=  2.0D-14,  4.3D-13,  1.7D-12, r^2= 2.7D+01
   Bfn.  Coefficient  Atom+Function         Bfn.  Coefficient  Atom+Function  
  ----- ------------  ---------------      ----- ------------  ---------------
    85     21.604055   9 C  pz              108     21.604055  10 C  pz        
   131    -21.604055  11 C  pz              154    -21.604055  12 C  pz        
   177     21.604055  13 C  pz              200     21.604055  14 C  pz        
   223    -21.604055  15 C  pz              246    -21.604055  16 C  pz        
    83    -12.424865   9 C  px              106     12.424865  10 C  px        

 Vector   61  Occ=0.000000D+00  E= 2.329832D-01  Symmetry=t1u
              MO Center=  1.4D-12,  3.9D-12,  4.1D-14, r^2= 1.3D+01
   Bfn.  Coefficient  Atom+Function         Bfn.  Coefficient  Atom+Function  
  ----- ------------  ---------------      ----- ------------  ---------------
    76     15.415554   9 C  s               191    -15.415554  14 C  s         
   122    -10.633230  11 C  s               214     10.633230  15 C  s         
   145     -4.202018  12 C  s               237      4.202018  16 C  s         
     2     -4.034418   1 H  s                47      4.034418   6 H  s         
    85     -3.769102   9 C  pz              200     -3.769102  14 C  pz        

 Vector   62  Occ=0.000000D+00  E= 2.329832D-01  Symmetry=t1u
              MO Center= -7.3D-13, -2.6D-12,  2.4D-13, r^2= 1.3D+01
   Bfn.  Coefficient  Atom+Function         Bfn.  Coefficient  Atom+Function  
  ----- ------------  ---------------      ----- ------------  ---------------
    99     14.328595  10 C  s               168    -14.328595  13 C  s         
   145    -12.531902  12 C  s               237     12.531902  16 C  s         
    11     -3.749949   2 H  s                38      3.749949   5 H  s         
   106      3.657201  10 C  px              175      3.657201  13 C  px        
   152      3.443654  12 C  px              244      3.443654  16 C  px        

 Vector   63  Occ=0.000000D+00  E= 2.329832D-01  Symmetry=t1u
              MO Center=  2.8D-12, -5.4D-13,  2.2D-13, r^2= 1.3D+01
   Bfn.  Coefficient  Atom+Function         Bfn.  Coefficient  Atom+Function  
  ----- ------------  ---------------      ----- ------------  ---------------
   122     12.769101  11 C  s               214    -12.769101  15 C  s         
   145    -10.090512  12 C  s               237     10.090512  16 C  s         
    99     -8.418941  10 C  s               168      8.418941  13 C  s         
    76      5.740353   9 C  s               191     -5.740353  14 C  s         
   130     -3.934258  11 C  py              222     -3.934258  15 C  py        

 Vector   64  Occ=0.000000D+00  E= 2.703229D-01  Symmetry=a1g
              MO Center= -6.1D-14, -6.7D-15,  6.1D-14, r^2= 9.5D+00
   Bfn.  Coefficient  Atom+Function         Bfn.  Coefficient  Atom+Function  
  ----- ------------  ---------------      ----- ------------  ---------------
     2      2.226060   1 H  s                11      2.226060   2 H  s         
    20      2.226060   3 H  s                29      2.226060   4 H  s         
    38      2.226060   5 H  s                47      2.226060   6 H  s         
    56      2.226060   7 H  s                65      2.226060   8 H  s         
    76     -0.909277   9 C  s                99     -0.909277  10 C  s         

 Vector   65  Occ=0.000000D+00  E= 3.196075D-01  Symmetry=t2g
              MO Center=  9.1D-13,  5.0D-13,  1.9D-12, r^2= 1.9D+01
   Bfn.  Coefficient  Atom+Function         Bfn.  Coefficient  Atom+Function  
  ----- ------------  ---------------      ----- ------------  ---------------
    99     67.455455  10 C  s               168     67.455455  13 C  s         
    76    -54.412703   9 C  s               191    -54.412703  14 C  s         
   122    -21.030052  11 C  s               214    -21.030052  15 C  s         
   108    -12.546448  10 C  pz              177     12.546448  13 C  pz        
    85     11.368940   9 C  pz              200    -11.368940  14 C  pz        

 Vector   66  Occ=0.000000D+00  E= 3.196075D-01  Symmetry=t2g
              MO Center=  1.4D-12,  1.7D-12,  2.5D-12, r^2= 1.9D+01
   Bfn.  Coefficient  Atom+Function         Bfn.  Coefficient  Atom+Function  
  ----- ------------  ---------------      ----- ------------  ---------------
   122     72.754895  11 C  s               214     72.754895  15 C  s         
   145    -40.291243  12 C  s               237    -40.291243  16 C  s         
    76    -33.164593   9 C  s               191    -33.164593  14 C  s         
   131     12.557498  11 C  pz              223    -12.557498  15 C  pz        
   130    -12.179931  11 C  py              222     12.179931  15 C  py        

 Vector   67  Occ=0.000000D+00  E= 3.196075D-01  Symmetry=t2g
              MO Center=  1.2D-12,  2.4D-12,  7.1D-13, r^2= 1.9D+01
   Bfn.  Coefficient  Atom+Function         Bfn.  Coefficient  Atom+Function  
  ----- ------------  ---------------      ----- ------------  ---------------
   145     65.769288  12 C  s               237     65.769288  16 C  s         
    76    -44.183119   9 C  s               191    -44.183119  14 C  s         
    99    -38.236772  10 C  s               168    -38.236772  13 C  s         
   122     16.650604  11 C  s               214     16.650604  15 C  s         
   152    -11.762928  12 C  px              244     11.762928  16 C  px        

 Vector   68  Occ=0.000000D+00  E= 3.681138D-01  Symmetry=t1g
              MO Center=  6.8D-13, -2.8D-12, -7.8D-13, r^2= 7.2D+00
   Bfn.  Coefficient  Atom+Function         Bfn.  Coefficient  Atom+Function  
  ----- ------------  ---------------      ----- ------------  ---------------
    83      2.856809   9 C  px              152     -2.856809  12 C  px        
   198     -2.856809  14 C  px              244      2.856809  16 C  px        
   107      2.239369  10 C  py              153     -2.239369  12 C  py        
   176     -2.239369  13 C  py              245      2.239369  16 C  py        
    84     -2.210048   9 C  py              130      2.210048  11 C  py        

 Vector   69  Occ=0.000000D+00  E= 3.681138D-01  Symmetry=t1g
              MO Center= -2.5D-13, -1.9D-13,  7.0D-13, r^2= 7.2D+00
   Bfn.  Coefficient  Atom+Function         Bfn.  Coefficient  Atom+Function  
  ----- ------------  ---------------      ----- ------------  ---------------
   106      2.851726  10 C  px              129     -2.851726  11 C  px        
   175     -2.851726  13 C  px              221      2.851726  15 C  px        
    85     -2.367070   9 C  pz              108      2.367070  10 C  pz        
   177     -2.367070  13 C  pz              200      2.367070  14 C  pz        
   131      2.072920  11 C  pz              154     -2.072920  12 C  pz        

 Vector   70  Occ=0.000000D+00  E= 3.681138D-01  Symmetry=t1g
              MO Center=  2.8D-14, -1.4D-14, -3.8D-15, r^2= 7.2D+00
   Bfn.  Coefficient  Atom+Function         Bfn.  Coefficient  Atom+Function  
  ----- ------------  ---------------      ----- ------------  ---------------
[...]
   53 Bend                    10    15    12                90.00000    0.00000
   54 Bend                    10    16    11                90.00000    0.00000
   55 Bend                    11    13    12                90.00000    0.00000
   56 Bend                    11    14    12                90.00000    0.00000
   57 Bend                    13     9    15                90.00000    0.00000
   58 Bend                    13     9    16                90.00000    0.00000
   59 Bend                    13    11    14                90.00000    0.00000
   60 Bend                    13    11    16                90.00000    0.00000
   61 Bend                    13    12    14                90.00000    0.00000
   62 Bend                    13    12    15                90.00000    0.00000
   63 Bend                    14    10    15                90.00000    0.00000
   64 Bend                    14    10    16                90.00000    0.00000
   65 Bend                    14    11    16                90.00000    0.00000
   66 Bend                    14    12    15                90.00000    0.00000
   67 Bend                    15     9    16                90.00000    0.00000
   68 Bend                    15    10    16                90.00000    0.00000
   69 Torsion                  1     9    13     5           0.00000    0.00000
   70 Torsion                  1     9    13    11        -135.00000   -0.00000
   71 Torsion                  1     9    13    12         135.00000    0.00000
   72 Torsion                  1     9    15     7           0.00000    0.00000
   73 Torsion                  1     9    15    10         135.00000    0.00000
   74 Torsion                  1     9    15    12        -135.00000   -0.00000
   75 Torsion                  1     9    16     8           0.00000    0.00000
   76 Torsion                  1     9    16    10        -135.00000   -0.00000
   77 Torsion                  1     9    16    11         135.00000    0.00000
   78 Torsion                  2    10    14     6           0.00000    0.00000
   79 Torsion                  2    10    14    11         135.00000    0.00000
   80 Torsion                  2    10    14    12        -135.00000   -0.00000
   81 Torsion                  2    10    15     7           0.00000    0.00000
   82 Torsion                  2    10    15     9        -135.00000   -0.00000
   83 Torsion                  2    10    15    12         135.00000    0.00000
   84 Torsion                  2    10    16     8           0.00000    0.00000
   85 Torsion                  2    10    16     9         135.00000    0.00000
   86 Torsion                  2    10    16    11        -135.00000   -0.00000
   87 Torsion                  3    11    13     5           0.00000    0.00000
   88 Torsion                  3    11    13     9         135.00000    0.00000
   89 Torsion                  3    11    13    12        -135.00000   -0.00000
   90 Torsion                  3    11    14     6           0.00000    0.00000
   91 Torsion                  3    11    14    10        -135.00000   -0.00000
   92 Torsion                  3    11    14    12         135.00000    0.00000
   93 Torsion                  3    11    16     8           0.00000    0.00000
   94 Torsion                  3    11    16     9        -135.00000   -0.00000
   95 Torsion                  3    11    16    10         135.00000    0.00000
   96 Torsion                  4    12    13     5           0.00000    0.00000
   97 Torsion                  4    12    13     9        -135.00000   -0.00000
   98 Torsion                  4    12    13    11         135.00000    0.00000
   99 Torsion                  4    12    14     6           0.00000    0.00000
  100 Torsion                  4    12    14    10         135.00000    0.00000
  101 Torsion                  4    12    14    11        -135.00000   -0.00000
  102 Torsion                  4    12    15     7           0.00000    0.00000
  103 Torsion                  4    12    15     9         135.00000    0.00000
  104 Torsion                  4    12    15    10        -135.00000   -0.00000
  105 Torsion                  5    13     9    15        -135.00000   -0.00000
  106 Torsion                  5    13     9    16         135.00000    0.00000
  107 Torsion                  5    13    11    14         135.00000    0.00000
  108 Torsion                  5    13    11    16        -135.00000   -0.00000
  109 Torsion                  5    13    12    14        -135.00000   -0.00000
  110 Torsion                  5    13    12    15         135.00000    0.00000
  111 Torsion                  6    14    10    15         135.00000    0.00000
  112 Torsion                  6    14    10    16        -135.00000   -0.00000
  113 Torsion                  6    14    11    13        -135.00000   -0.00000
  114 Torsion                  6    14    11    16         135.00000    0.00000
  115 Torsion                  6    14    12    13         135.00000    0.00000
  116 Torsion                  6    14    12    15        -135.00000   -0.00000
  117 Torsion                  7    15     9    13         135.00000    0.00000
  118 Torsion                  7    15     9    16        -135.00000   -0.00000
  119 Torsion                  7    15    10    14        -135.00000   -0.00000
  120 Torsion                  7    15    10    16         135.00000    0.00000
  121 Torsion                  7    15    12    13        -135.00000   -0.00000
  122 Torsion                  7    15    12    14         135.00000    0.00000
  123 Torsion                  8    16     9    13        -135.00000   -0.00000
  124 Torsion                  8    16     9    15         135.00000    0.00000
  125 Torsion                  8    16    10    14         135.00000    0.00000
  126 Torsion                  8    16    10    15        -135.00000   -0.00000
  127 Torsion                  8    16    11    13         135.00000    0.00000
  128 Torsion                  8    16    11    14        -135.00000   -0.00000
  129 Torsion                  9    13    11    14         -90.00000    0.00000
  130 Torsion                  9    13    11    16           0.00000    0.00000
  131 Torsion                  9    13    12    14          90.00000    0.00000
  132 Torsion                  9    13    12    15           0.00000    0.00000
  133 Torsion                  9    15    10    14          90.00000    0.00000
  134 Torsion                  9    15    10    16           0.00000    0.00000
  135 Torsion                  9    15    12    13           0.00000    0.00000
  136 Torsion                  9    15    12    14         -90.00000    0.00000
  137 Torsion                  9    16    10    14         -90.00000    0.00000
  138 Torsion                  9    16    10    15           0.00000    0.00000
  139 Torsion                  9    16    11    13           0.00000    0.00000
  140 Torsion                  9    16    11    14          90.00000    0.00000
  141 Torsion                 10    14    11    13          90.00000    0.00000
  142 Torsion                 10    14    11    16           0.00000    0.00000
  143 Torsion                 10    14    12    13         -90.00000    0.00000
  144 Torsion                 10    14    12    15           0.00000    0.00000
  145 Torsion                 10    15     9    13         -90.00000    0.00000
  146 Torsion                 10    15     9    16           0.00000    0.00000
  147 Torsion                 10    15    12    13          90.00000    0.00000
  148 Torsion                 10    15    12    14           0.00000    0.00000
  149 Torsion                 10    16     9    13          90.00000    0.00000
  150 Torsion                 10    16     9    15           0.00000    0.00000
  151 Torsion                 10    16    11    13         -90.00000    0.00000
  152 Torsion                 10    16    11    14           0.00000    0.00000
  153 Torsion                 11    13     9    15          90.00000    0.00000
  154 Torsion                 11    13     9    16           0.00000    0.00000
  155 Torsion                 11    13    12    14           0.00000    0.00000
  156 Torsion                 11    13    12    15         -90.00000    0.00000
  157 Torsion                 11    14    10    15         -90.00000    0.00000
  158 Torsion                 11    14    10    16           0.00000    0.00000
  159 Torsion                 11    14    12    13           0.00000    0.00000
  160 Torsion                 11    14    12    15          90.00000    0.00000
  161 Torsion                 11    16     9    13           0.00000    0.00000
  162 Torsion                 11    16     9    15         -90.00000    0.00000
  163 Torsion                 11    16    10    14           0.00000    0.00000
  164 Torsion                 11    16    10    15          90.00000    0.00000
  165 Torsion                 12    13     9    15           0.00000    0.00000
  166 Torsion                 12    13     9    16         -90.00000    0.00000
  167 Torsion                 12    13    11    14           0.00000    0.00000
  168 Torsion                 12    13    11    16          90.00000    0.00000
  169 Torsion                 12    14    10    15           0.00000    0.00000
  170 Torsion                 12    14    10    16          90.00000    0.00000
  171 Torsion                 12    14    11    13           0.00000    0.00000
  172 Torsion                 12    14    11    16         -90.00000    0.00000
  173 Torsion                 12    15     9    13           0.00000    0.00000
  174 Torsion                 12    15     9    16          90.00000    0.00000
  175 Torsion                 12    15    10    14           0.00000    0.00000
  176 Torsion                 12    15    10    16         -90.00000    0.00000

 ==============================================================================
                                internuclear distances
 ------------------------------------------------------------------------------
       center one      |      center two      | atomic units |  angstroms
 ------------------------------------------------------------------------------
    9 C                |   1 H                |     2.07620  |     1.09868
   10 C                |   2 H                |     2.07620  |     1.09868
   11 C                |   3 H                |     2.07620  |     1.09868
   12 C                |   4 H                |     2.07620  |     1.09868
   13 C                |   5 H                |     2.07620  |     1.09868
   13 C                |   9 C                |     2.98408  |     1.57911
   13 C                |  11 C                |     2.98408  |     1.57911
   13 C                |  12 C                |     2.98408  |     1.57911
   14 C                |   6 H                |     2.07620  |     1.09868
   14 C                |  10 C                |     2.98408  |     1.57911
   14 C                |  11 C                |     2.98408  |     1.57911
   14 C                |  12 C                |     2.98408  |     1.57911
   15 C                |   7 H                |     2.07620  |     1.09868
   15 C                |   9 C                |     2.98408  |     1.57911
   15 C                |  10 C                |     2.98408  |     1.57911
   15 C                |  12 C                |     2.98408  |     1.57911
   16 C                |   8 H                |     2.07620  |     1.09868
   16 C                |   9 C                |     2.98408  |     1.57911
   16 C                |  10 C                |     2.98408  |     1.57911
   16 C                |  11 C                |     2.98408  |     1.57911
 ------------------------------------------------------------------------------
                         number of included internuclear distances:         20
 ==============================================================================



 ==============================================================================
                                 internuclear angles
 ------------------------------------------------------------------------------
        center 1       |       center 2       |       center 3       |  degrees
 ------------------------------------------------------------------------------
    1 H                |   9 C                |  13 C                |   125.26
    1 H                |   9 C                |  15 C                |   125.26
    1 H                |   9 C                |  16 C                |   125.26
   13 C                |   9 C                |  15 C                |    90.00
   13 C                |   9 C                |  16 C                |    90.00
   15 C                |   9 C                |  16 C                |    90.00
    2 H                |  10 C                |  14 C                |   125.26
    2 H                |  10 C                |  15 C                |   125.26
    2 H                |  10 C                |  16 C                |   125.26
   14 C                |  10 C                |  15 C                |    90.00
   14 C                |  10 C                |  16 C                |    90.00
   15 C                |  10 C                |  16 C                |    90.00
    3 H                |  11 C                |  13 C                |   125.26
    3 H                |  11 C                |  14 C                |   125.26
    3 H                |  11 C                |  16 C                |   125.26
   13 C                |  11 C                |  14 C                |    90.00
   13 C                |  11 C                |  16 C                |    90.00
   14 C                |  11 C                |  16 C                |    90.00
    4 H                |  12 C                |  13 C                |   125.26
    4 H                |  12 C                |  14 C                |   125.26
    4 H                |  12 C                |  15 C                |   125.26
   13 C                |  12 C                |  14 C                |    90.00
   13 C                |  12 C                |  15 C                |    90.00
   14 C                |  12 C                |  15 C                |    90.00
    5 H                |  13 C                |   9 C                |   125.26
    5 H                |  13 C                |  11 C                |   125.26
    5 H                |  13 C                |  12 C                |   125.26
    9 C                |  13 C                |  11 C                |    90.00
    9 C                |  13 C                |  12 C                |    90.00
   11 C                |  13 C                |  12 C                |    90.00
    6 H                |  14 C                |  10 C                |   125.26
    6 H                |  14 C                |  11 C                |   125.26
    6 H                |  14 C                |  12 C                |   125.26
   10 C                |  14 C                |  11 C                |    90.00
   10 C                |  14 C                |  12 C                |    90.00
   11 C                |  14 C                |  12 C                |    90.00
    7 H                |  15 C                |   9 C                |   125.26
    7 H                |  15 C                |  10 C                |   125.26
    7 H                |  15 C                |  12 C                |   125.26
    9 C                |  15 C                |  10 C                |    90.00
    9 C                |  15 C                |  12 C                |    90.00
   10 C                |  15 C                |  12 C                |    90.00
    8 H                |  16 C                |   9 C                |   125.26
    8 H                |  16 C                |  10 C                |   125.26
    8 H                |  16 C                |  11 C                |   125.26
    9 C                |  16 C                |  10 C                |    90.00
    9 C                |  16 C                |  11 C                |    90.00
   10 C                |  16 C                |  11 C                |    90.00
 ------------------------------------------------------------------------------
                            number of included internuclear angles:         48
 ==============================================================================




 Task  times  cpu:     2761.6s     wall:     2422.5s
 Summary of allocated global arrays
-----------------------------------
  No active global arrays



                         GA Statistics for process    0
                         ------------------------------

       create   destroy   get      put      acc     scatter   gather  read&inc
calls: 2689     2689     1.13e+07 1.49e+06 7.39e+06    0        0     7.93e+04 
number of processes/call 1.00e+00 1.00e+00 1.00e+00 0.00e+00 0.00e+00
bytes total:             1.04e+10 1.45e+10 5.56e+09 0.00e+00 0.00e+00 6.35e+05
bytes remote:            0.00e+00 0.00e+00 0.00e+00 0.00e+00 0.00e+00 0.00e+00
Max memory consumed for GA by this process: 209666568 bytes
MA_summarize_allocated_blocks: starting scan ...
MA_summarize_allocated_blocks: scan completed: 0 heap blocks, 0 stack blocks
MA usage statistics:

	allocation statistics:
					      heap	     stack
					      ----	     -----
	current number of blocks	         0	         0
	maximum number of blocks	        25	        36
	current total bytes		         0	         0
	maximum total bytes		    144768	 106508680
	maximum total K-bytes		       145	    106509
	maximum total M-bytes		         1	       107


                                NWChem Input Module
                                -------------------





                                     CITATION
                                     --------
                Please cite the following reference when publishing
                           results obtained with NWChem:

                 M. Valiev, E.J. Bylaska, N. Govind, K. Kowalski,
              T.P. Straatsma, H.J.J. van Dam, D. Wang, J. Nieplocha,
                        E. Apra, T.L. Windus, W.A. de Jong
                 "NWChem: a comprehensive and scalable open-source
                  solution for large scale molecular simulations"
                      Comput. Phys. Commun. 181, 1477 (2010)
                           doi:10.1016/j.cpc.2010.04.018

                                      AUTHORS
                                      -------
          E. Apra, E. J. Bylaska, W. A. de Jong, N. Govind, K. Kowalski,
       T. P. Straatsma, M. Valiev, H. J. J. van Dam, D. Wang, T. L. Windus,
        J. Hammond, J. Autschbach, K. Bhaskaran-Nair, J. Brabec, K. Lopata,
       S. A. Fischer, S. Krishnamoorthy, W. Ma, M. Klemm, O. Villa, Y. Chen,
    V. Anisimov, F. Aquino, S. Hirata, M. T. Hackler, T. Risthaus, M. Malagoli,
       A. Marenich, A. Otero-de-la-Roza, J. Mullin, P. Nichols, R. Peverati,
     J. Pittner, Y. Zhao, P.-D. Fan, A. Fonari, M. Williamson, R. J. Harrison,
       J. R. Rehr, M. Dupuis, D. Silverstein, D. M. A. Smith, J. Nieplocha,
        V. Tipparaju, M. Krishnan, B. E. Van Kuiken, A. Vazquez-Mayagoitia,
        L. Jensen, M. Swart, Q. Wu, T. Van Voorhis, A. A. Auer, M. Nooijen,
      L. D. Crosby, E. Brown, G. Cisneros, G. I. Fann, H. Fruchtl, J. Garza,
        K. Hirao, R. A. Kendall, J. A. Nichols, K. Tsemekhman, K. Wolinski,
     J. Anchell, D. E. Bernholdt, P. Borowski, T. Clark, D. Clerc, H. Dachsel,
   M. J. O. Deegan, K. Dyall, D. Elwood, E. Glendening, M. Gutowski, A. C. Hess,
         J. Jaffe, B. G. Johnson, J. Ju, R. Kobayashi, R. Kutteh, Z. Lin,
   R. Littlefield, X. Long, B. Meng, T. Nakajima, S. Niu, L. Pollack, M. Rosing,
   K. Glaesemann, G. Sandrone, M. Stave, H. Taylor, G. Thomas, J. H. van Lenthe,
                               A. T. Wong, Z. Zhang.

 Total times  cpu:     2761.9s     wall:     2422.8s
