 argument  1 = cubane.nw
                                         
                                         


              Northwest Computational Chemistry Package (NWChem) 6.6
              ------------------------------------------------------


                    Environmental Molecular Sciences Laboratory
                       Pacific Northwest National Laboratory
                                Richland, WA 99352

                              Copyright (c) 1994-2015
                       Pacific Northwest National Laboratory
                            Battelle Memorial Institute

             NWChem is an open-source computational chemistry package
                        distributed under the terms of the
                      Educational Community License (ECL) 2.0
             A copy of the license is included with this distribution
                              in the LICENSE.TXT file

                                  ACKNOWLEDGMENT
                                  --------------

            This software and its documentation were developed at the
            EMSL at Pacific Northwest National Laboratory, a multiprogram
            national laboratory, operated for the U.S. Department of Energy
            by Battelle under Contract Number DE-AC05-76RL01830. Support
            for this work was provided by the Department of Energy Office
            of Biological and Environmental Research, Office of Basic
            Energy Sciences, and the Office of Advanced Scientific Computing.


           Job information
           ---------------

    hostname        = konkov-work
    program         = nwchem
    date            = Mon Mar  6 15:17:07 2017

    compiled        = Пн_фев_06_13:51:48_2017
    source          = /home/vladimir/bin/nwchem_source/nwchem-6.6+r27746
    nwchem branch   = 6.6
    nwchem revision = 27746
    ga revision     = 10594
    input           = cubane.nw
    prefix          = cubane.
    data base       = ./cubane.db
    status          = startup
    nproc           =        1
    time left       =     -1s



           Memory information
           ------------------

    heap     =   13107200 doubles =    100.0 Mbytes
    stack    =   13107197 doubles =    100.0 Mbytes
    global   =  262144000 doubles =   2000.0 Mbytes (distinct from heap & stack)
    total    =  288358397 doubles =   2200.0 Mbytes
    verify   = yes
    hardfail = no 


           Directory information
           ---------------------

  0 permanent = .
  0 scratch   = .




                                NWChem Input Module
                                -------------------


                       cubane MK-CCSD(2,2)/cc-pVDZ optimize
                       ------------------------------------

 Scaling coordinates for geometry "geometry" by  1.889725989
 (inverse scale =  0.529177249)

 Turning off AUTOSYM since
 SYMMETRY directive was detected!


          ------
          auto-z
          ------


                             Geometry "geometry" -> ""
                             -------------------------

 Output coordinates in angstroms (scale by  1.889725989 to convert to a.u.)

  No.       Tag          Charge          X              Y              Z
 ---- ---------------- ---------- -------------- -------------- --------------
    1 H                    1.0000     2.05734129    -1.32981120     0.02496975
    2 C                    6.0000     1.09520984    -0.79607173    -0.03872781
    3 H                    1.0000     2.05734129     1.32981120     0.02496975
    4 C                    6.0000     1.09520984     0.79607173    -0.03872781
    5 H                    1.0000     0.00000000    -1.59258557    -2.05035613
    6 C                    6.0000     0.00000000    -1.20794408    -1.02589690
    7 H                    1.0000     0.00000000     1.59258557    -2.05035613
    8 C                    6.0000     0.00000000     1.20794408    -1.02589690
    9 H                    1.0000     0.00000000    -1.45028854     1.97989593
   10 C                    6.0000     0.00000000    -0.78106969     1.10677262
   11 H                    1.0000     0.00000000     1.45028854     1.97989593
   12 C                    6.0000     0.00000000     0.78106969     1.10677262
   13 H                    1.0000    -2.05734129    -1.32981120     0.02496975
   14 C                    6.0000    -1.09520984    -0.79607173    -0.03872781
   15 H                    1.0000    -2.05734129     1.32981120     0.02496975
   16 C                    6.0000    -1.09520984     0.79607173    -0.03872781

      Atomic Mass 
      ----------- 

      H                  1.007825
      C                 12.000000


 Effective nuclear repulsion energy (a.u.)     357.6009661586

            Nuclear Dipole moment (a.u.) 
            ----------------------------
        X                 Y               Z
 ---------------- ---------------- ----------------
     0.0000000000    -0.0000000000    -0.0000000000

      Symmetry information
      --------------------

 Group name             C2v       
 Group number             16
 Group order               4
 No. of unique centers     6

      Symmetry unique atoms

     1    2    5    6    9   10



                                Z-matrix (autoz)
                                -------- 

 Units are Angstrom for bonds and degrees for angles

      Type          Name      I     J     K     L     M      Value
      ----------- --------  ----- ----- ----- ----- ----- ----------
    1 Stretch                  1     2                       1.10210
    2 Stretch                  2     4                       1.59214
    3 Stretch                  2     6                       1.53089
    4 Stretch                  2    10                       1.58489
    5 Stretch                  3     4                       1.10210
    6 Stretch                  4     8                       1.53089
    7 Stretch                  4    12                       1.58489
    8 Stretch                  5     6                       1.09429
    9 Stretch                  6    14                       1.53089
   10 Stretch                  7     8                       1.09429
   11 Stretch                  8    16                       1.53089
   12 Stretch                  9    10                       1.10009
   13 Stretch                 10    12                       1.56214
   14 Stretch                 10    14                       1.58489
   15 Stretch                 11    12                       1.10009
   16 Stretch                 12    16                       1.58489
   17 Stretch                 13    14                       1.10210
   18 Stretch                 14    16                       1.59214
   19 Stretch                 15    16                       1.10210
   20 Bend                     1     2     4               118.96607
   21 Bend                     1     2     6               122.10833
   22 Bend                     1     2    10               124.47722
   23 Bend                     2     4     3               118.96607
   24 Bend                     2     4     8               105.60721
   25 Bend                     2     4    12                89.45765
   26 Bend                     2     6     5               134.28700
   27 Bend                     2     6    14                91.35312
   28 Bend                     2    10     9               124.60298
   29 Bend                     2    10    12                90.54235
   30 Bend                     2    10    14                87.42363
   31 Bend                     3     4     8               122.10833
   32 Bend                     3     4    12               124.47722
   33 Bend                     4     2     6               105.60721
   34 Bend                     4     2    10                89.45765
   35 Bend                     4     8     7               134.28700
   36 Bend                     4     8    16                91.35312
   37 Bend                     4    12    10                90.54235
   38 Bend                     4    12    11               124.60298
   39 Bend                     4    12    16                87.42363
   40 Bend                     5     6    14               134.28700
   41 Bend                     6     2    10                88.52386
   42 Bend                     6    14    10                88.52386
   43 Bend                     6    14    13               122.10833
   44 Bend                     6    14    16               105.60721
   45 Bend                     7     8    16               134.28700
   46 Bend                     8     4    12                88.52386
   47 Bend                     8    16    12                88.52386
   48 Bend                     8    16    14               105.60721
   49 Bend                     8    16    15               122.10833
   50 Bend                     9    10    12               127.46892
   51 Bend                     9    10    14               124.60298
   52 Bend                    10    12    11               127.46892
   53 Bend                    10    12    16                90.54235
   54 Bend                    10    14    13               124.47722
   55 Bend                    10    14    16                89.45765
   56 Bend                    11    12    16               124.60298
   57 Bend                    12    10    14                90.54235
   58 Bend                    12    16    14                89.45765
   59 Bend                    12    16    15               124.47722
   60 Bend                    13    14    16               118.96607
   61 Bend                    14    16    15               118.96607
   62 Torsion                  1     2     4     3          -0.00000
   63 Torsion                  1     2     4     8         141.75775
   64 Torsion                  1     2     4    12        -129.92655
   65 Torsion                  1     2     6     5         -36.52674
   66 Torsion                  1     2     6    14         146.36287
   67 Torsion                  1     2    10     9         -12.69184
   68 Torsion                  1     2    10    12         125.52147
   69 Torsion                  1     2    10    14        -143.96001
   70 Torsion                  2     4     8     7        -103.73003
   71 Torsion                  2     4     8    16          73.38036
   72 Torsion                  2     4    12    10           0.00000
   73 Torsion                  2     4    12    11         138.21332
   74 Torsion                  2     4    12    16         -90.51852
   75 Torsion                  2     6    14    10         -15.64386
   76 Torsion                  2     6    14    13        -146.36287
   77 Torsion                  2     6    14    16          73.38036
   78 Torsion                  2    10    12     4          -0.00000
   79 Torsion                  2    10    12    11        -136.28573
   80 Torsion                  2    10    12    16          87.42853
   81 Torsion                  2    10    14     6          15.10923
   82 Torsion                  2    10    14    13         143.96001
   83 Torsion                  2    10    14    16         -90.51852
   84 Torsion                  3     4     2     6        -141.75775
   85 Torsion                  3     4     2    10         129.92655
   86 Torsion                  3     4     8     7          36.52674
   87 Torsion                  3     4     8    16        -146.36287
   88 Torsion                  3     4    12    10        -125.52147
   89 Torsion                  3     4    12    11          12.69184
   90 Torsion                  3     4    12    16         143.96001
   91 Torsion                  4     2     6     5         103.73003
   92 Torsion                  4     2     6    14         -73.38036
   93 Torsion                  4     2    10     9        -138.21332
   94 Torsion                  4     2    10    12          -0.00000
   95 Torsion                  4     2    10    14          90.51852
   96 Torsion                  4     8    16    12          15.64386
   97 Torsion                  4     8    16    14         -73.38036
   98 Torsion                  4     8    16    15         146.36287
   99 Torsion                  4    12    10     9         136.28573
  100 Torsion                  4    12    10    14         -87.42853
  101 Torsion                  4    12    16     8         -15.10923
  102 Torsion                  4    12    16    14          90.51852
  103 Torsion                  4    12    16    15        -143.96001
  104 Torsion                  5     6     2    10        -167.24575
  105 Torsion                  5     6    14    10         167.24575
  106 Torsion                  5     6    14    13          36.52674
  107 Torsion                  5     6    14    16        -103.73003
  108 Torsion                  6     2     4     8           0.00000
  109 Torsion                  6     2     4    12          88.31570
  110 Torsion                  6     2    10     9         116.15893
  111 Torsion                  6     2    10    12        -105.62775
  112 Torsion                  6     2    10    14         -15.10923
  113 Torsion                  6    14    10     9        -116.15893
  114 Torsion                  6    14    10    12         105.62775
  115 Torsion                  6    14    16     8          -0.00000
  116 Torsion                  6    14    16    12         -88.31570
  117 Torsion                  6    14    16    15         141.75775
  118 Torsion                  7     8     4    12         167.24575
  119 Torsion                  7     8    16    12        -167.24575
  120 Torsion                  7     8    16    14         103.73003
  121 Torsion                  7     8    16    15         -36.52674
  122 Torsion                  8     4     2    10         -88.31570
  123 Torsion                  8     4    12    10         105.62775
  124 Torsion                  8     4    12    11        -116.15893
  125 Torsion                  8     4    12    16          15.10923
  126 Torsion                  8    16    12    10        -105.62775
  127 Torsion                  8    16    12    11         116.15893
  128 Torsion                  8    16    14    10          88.31570
  129 Torsion                  8    16    14    13        -141.75775
  130 Torsion                  9    10    12    11           0.00000
  131 Torsion                  9    10    12    16        -136.28573
  132 Torsion                  9    10    14    13          12.69184
  133 Torsion                  9    10    14    16         138.21332
  134 Torsion                 10     2     4    12          -0.00000
  135 Torsion                 10     2     6    14          15.64386
  136 Torsion                 10    12    16    14           0.00000
  137 Torsion                 10    12    16    15         125.52147
  138 Torsion                 10    14    16    12           0.00000
  139 Torsion                 10    14    16    15        -129.92655
  140 Torsion                 11    12    10    14         136.28573
  141 Torsion                 11    12    16    14        -138.21332
  142 Torsion                 11    12    16    15         -12.69184
  143 Torsion                 12     4     8    16         -15.64386
  144 Torsion                 12    10    14    13        -125.52147
  145 Torsion                 12    10    14    16          -0.00000
  146 Torsion                 12    16    14    13         129.92655
  147 Torsion                 13    14    16    15           0.00000
  148 Torsion                 14    10    12    16           0.00000


            XYZ format geometry
            -------------------
    16
 geometry
 H                     2.05734129    -1.32981120     0.02496975
 C                     1.09520984    -0.79607173    -0.03872781
 H                     2.05734129     1.32981120     0.02496975
 C                     1.09520984     0.79607173    -0.03872781
 H                     0.00000000    -1.59258557    -2.05035613
 C                     0.00000000    -1.20794408    -1.02589690
 H                     0.00000000     1.59258557    -2.05035613
 C                     0.00000000     1.20794408    -1.02589690
 H                     0.00000000    -1.45028854     1.97989593
 C                     0.00000000    -0.78106969     1.10677262
 H                     0.00000000     1.45028854     1.97989593
 C                     0.00000000     0.78106969     1.10677262
 H                    -2.05734129    -1.32981120     0.02496975
 C                    -1.09520984    -0.79607173    -0.03872781
 H                    -2.05734129     1.32981120     0.02496975
 C                    -1.09520984     0.79607173    -0.03872781

 ==============================================================================
                                internuclear distances
 ------------------------------------------------------------------------------
       center one      |      center two      | atomic units |  angstroms
 ------------------------------------------------------------------------------
    2 C                |   1 H                |     2.08267  |     1.10210
    4 C                |   2 C                |     3.00871  |     1.59214
    4 C                |   3 H                |     2.08267  |     1.10210
    6 C                |   2 C                |     2.89296  |     1.53089
    6 C                |   5 H                |     2.06790  |     1.09429
    8 C                |   4 C                |     2.89296  |     1.53089
    8 C                |   7 H                |     2.06790  |     1.09429
   10 C                |   2 C                |     2.99501  |     1.58489
   10 C                |   9 H                |     2.07887  |     1.10009
   12 C                |   4 C                |     2.99501  |     1.58489
   12 C                |  10 C                |     2.95202  |     1.56214
   12 C                |  11 H                |     2.07887  |     1.10009
   14 C                |   6 C                |     2.89296  |     1.53089
   14 C                |  10 C                |     2.99501  |     1.58489
   14 C                |  13 H                |     2.08267  |     1.10210
   16 C                |   8 C                |     2.89296  |     1.53089
   16 C                |  12 C                |     2.99501  |     1.58489
   16 C                |  14 C                |     3.00871  |     1.59214
   16 C                |  15 H                |     2.08267  |     1.10210
 ------------------------------------------------------------------------------
                         number of included internuclear distances:         19
 ==============================================================================



 ==============================================================================
                                 internuclear angles
 ------------------------------------------------------------------------------
        center 1       |       center 2       |       center 3       |  degrees
 ------------------------------------------------------------------------------
    1 H                |   2 C                |   4 C                |   118.97
    1 H                |   2 C                |   6 C                |   122.11
    1 H                |   2 C                |  10 C                |   124.48
    4 C                |   2 C                |   6 C                |   105.61
    4 C                |   2 C                |  10 C                |    89.46
    6 C                |   2 C                |  10 C                |    88.52
    2 C                |   4 C                |   3 H                |   118.97
    2 C                |   4 C                |   8 C                |   105.61
    2 C                |   4 C                |  12 C                |    89.46
    3 H                |   4 C                |   8 C                |   122.11
    3 H                |   4 C                |  12 C                |   124.48
    8 C                |   4 C                |  12 C                |    88.52
    2 C                |   6 C                |   5 H                |   134.29
    2 C                |   6 C                |  14 C                |    91.35
    5 H                |   6 C                |  14 C                |   134.29
    4 C                |   8 C                |   7 H                |   134.29
    4 C                |   8 C                |  16 C                |    91.35
    7 H                |   8 C                |  16 C                |   134.29
    2 C                |  10 C                |   9 H                |   124.60
    2 C                |  10 C                |  12 C                |    90.54
    2 C                |  10 C                |  14 C                |    87.42
    9 H                |  10 C                |  12 C                |   127.47
    9 H                |  10 C                |  14 C                |   124.60
   12 C                |  10 C                |  14 C                |    90.54
    4 C                |  12 C                |  10 C                |    90.54
    4 C                |  12 C                |  11 H                |   124.60
    4 C                |  12 C                |  16 C                |    87.42
   10 C                |  12 C                |  11 H                |   127.47
   10 C                |  12 C                |  16 C                |    90.54
   11 H                |  12 C                |  16 C                |   124.60
    6 C                |  14 C                |  10 C                |    88.52
    6 C                |  14 C                |  13 H                |   122.11
    6 C                |  14 C                |  16 C                |   105.61
   10 C                |  14 C                |  13 H                |   124.48
   10 C                |  14 C                |  16 C                |    89.46
   13 H                |  14 C                |  16 C                |   118.97
    8 C                |  16 C                |  12 C                |    88.52
    8 C                |  16 C                |  14 C                |   105.61
    8 C                |  16 C                |  15 H                |   122.11
   12 C                |  16 C                |  14 C                |    89.46
   12 C                |  16 C                |  15 H                |   124.48
   14 C                |  16 C                |  15 H                |   118.97
 ------------------------------------------------------------------------------
                            number of included internuclear angles:         42
 ==============================================================================



  library name resolved from: environment
  library file name is: </home/vladimir/bin/nwchem-6.6/src/basis/libraries/>
  
                      Basis "ao basis" -> "" (spherical)
                      -----
  H (Hydrogen)
  ------------
            Exponent  Coefficients 
       -------------- ---------------------------------------------------------
  1 S  1.30100000E+01  0.019685
  1 S  1.96200000E+00  0.137977
  1 S  4.44600000E-01  0.478148

  2 S  1.22000000E-01  1.000000

  3 P  7.27000000E-01  1.000000

  C (Carbon)
  ----------
            Exponent  Coefficients 
       -------------- ---------------------------------------------------------
  1 S  6.66500000E+03  0.000692
  1 S  1.00000000E+03  0.005329
  1 S  2.28000000E+02  0.027077
  1 S  6.47100000E+01  0.101718
  1 S  2.10600000E+01  0.274740
  1 S  7.49500000E+00  0.448564
  1 S  2.79700000E+00  0.285074
  1 S  5.21500000E-01  0.015204

  2 S  6.66500000E+03 -0.000146
  2 S  1.00000000E+03 -0.001154
  2 S  2.28000000E+02 -0.005725
  2 S  6.47100000E+01 -0.023312
  2 S  2.10600000E+01 -0.063955
  2 S  7.49500000E+00 -0.149981
  2 S  2.79700000E+00 -0.127262
  2 S  5.21500000E-01  0.544529

  3 S  1.59600000E-01  1.000000

  4 P  9.43900000E+00  0.038109
  4 P  2.00200000E+00  0.209480
  4 P  5.45600000E-01  0.508557

  5 P  1.51700000E-01  1.000000

  6 D  5.50000000E-01  1.000000



 Summary of "ao basis" -> "" (spherical)
 ------------------------------------------------------------------------------
       Tag                 Description            Shells   Functions and Types
 ---------------- ------------------------------  ------  ---------------------
 H                          cc-pVDZ                  3        5   2s1p
 C                          cc-pVDZ                  6       14   3s2p1d


Entering MRCC input module

  Reference   1 :22222222222222222222222222220                     
  Reference   2 :22222222222222222222222222202                     
 roottooverlap                    0


                           NWChem Geometry Optimization
                           ----------------------------




                       cubane MK-CCSD(2,2)/cc-pVDZ optimize


 maximum gradient threshold         (gmax) =   0.000015
 rms gradient threshold             (grms) =   0.000010
 maximum cartesian step threshold   (xmax) =   0.000060
 rms cartesian step threshold       (xrms) =   0.000040
 fixed trust radius                (trust) =   0.100000
 maximum step size to saddle      (sadstp) =   0.100000
 energy precision                  (eprec) =   1.0D-07
 maximum number of steps          (nptopt) =   20
 initial hessian option           (inhess) =    2
 line search option               (linopt) =    0
 hessian update option            (modupd) =    2
 saddle point option              (modsad) =    1
 initial eigen-mode to follow     (moddir) =    0
 initial variable to follow       (vardir) =    0
 follow first negative mode     (firstneg) =    T
 apply conjugacy                    (opcg) =    F
 source of zmatrix                         =   autoz   


          -----------------------
          Transition State Search
          -----------------------


 Names of Z-matrix variables 
    1              2              3              4              5         
    6              7              8              9             10         
   11             12             13             14             15         
   16             17             18             19             20         
   21             22             23             24             25         
   26             27             28             29             30         
   31             32             33             34             35         
   36             37             38             39             40         
   41             42             43             44             45         
   46             47             48             49             50         
   51             52             53             54             55         
   56             57             58             59             60         
   61             62             63             64             65         
   66             67             68             69             70         
   71             72             73             74             75         
   76             77             78             79             80         
   81             82             83             84             85         
   86             87             88             89             90         
   91             92             93             94             95         
   96             97             98             99            100         
  101            102            103            104            105         
  106            107            108            109            110         
  111            112            113            114            115         
  116            117            118            119            120         
  121            122            123            124            125         
  126            127            128            129            130         
  131            132            133            134            135         
  136            137            138            139            140         
  141            142            143            144            145         
  146            147            148         

 Variables with the same non-blank name are constrained to be equal


  Using Cartesian Hessian from previous frequency calculation

          --------
          Step   0
          --------


                         Geometry "geometry" -> "geometry"
                         ---------------------------------

 Output coordinates in angstroms (scale by  1.889725989 to convert to a.u.)

  No.       Tag          Charge          X              Y              Z
 ---- ---------------- ---------- -------------- -------------- --------------
    1 H                    1.0000     2.05734129    -1.32981120     0.02496975
    2 C                    6.0000     1.09520984    -0.79607173    -0.03872781
    3 H                    1.0000     2.05734129     1.32981120     0.02496975
    4 C                    6.0000     1.09520984     0.79607173    -0.03872781
    5 H                    1.0000     0.00000000    -1.59258557    -2.05035613
    6 C                    6.0000     0.00000000    -1.20794408    -1.02589690
    7 H                    1.0000     0.00000000     1.59258557    -2.05035613
    8 C                    6.0000     0.00000000     1.20794408    -1.02589690
    9 H                    1.0000     0.00000000    -1.45028854     1.97989593
   10 C                    6.0000     0.00000000    -0.78106969     1.10677262
   11 H                    1.0000     0.00000000     1.45028854     1.97989593
   12 C                    6.0000     0.00000000     0.78106969     1.10677262
   13 H                    1.0000    -2.05734129    -1.32981120     0.02496975
   14 C                    6.0000    -1.09520984    -0.79607173    -0.03872781
   15 H                    1.0000    -2.05734129     1.32981120     0.02496975
   16 C                    6.0000    -1.09520984     0.79607173    -0.03872781

      Atomic Mass 
      ----------- 

      H                  1.007825
      C                 12.000000


 Effective nuclear repulsion energy (a.u.)     357.6009661586

            Nuclear Dipole moment (a.u.) 
            ----------------------------
        X                 Y               Z
 ---------------- ---------------- ----------------
     0.0000000000    -0.0000000000    -0.0000000000

      Symmetry information
      --------------------

 Group name             C2v       
 Group number             16
 Group order               4
 No. of unique centers     6

      Symmetry unique atoms

     1    2    5    6    9   10

                         NWChem Numerical Gradients Module
                         ---------------------------------


 No. of totally-symmetric internal modes =  13

 usesamefock_it F
 ignorecomplex F
 savet F
 se4t F
 no_aposteriori F
 Using fermivacuum by default
 Using rootfromoverlap  F
 standard version of CCSD is used
 All integrlas stored in memory
 BYTES BYTES                    8
                                 NWChem SCF Module
                                 -----------------


                       cubane MK-CCSD(2,2)/cc-pVDZ optimize



  ao basis        = "ao basis"
  functions       =   152
  atoms           =    16
  closed shells   =    28
  open shells     =     0
  charge          =   0.00
  wavefunction    = RHF 
  input vectors   = atomic
  output vectors  = ./cubane.movecs
  use symmetry    = T
  symmetry adapt  = T


 Summary of "ao basis" -> "ao basis" (spherical)
 ------------------------------------------------------------------------------
       Tag                 Description            Shells   Functions and Types
 ---------------- ------------------------------  ------  ---------------------
 H                          cc-pVDZ                  3        5   2s1p
 C                          cc-pVDZ                  6       14   3s2p1d


      Symmetry analysis of basis
      --------------------------

        a1         47
        a2         29
        b1         29
        b2         47


 Forming initial guess at       0.2s


      Superposition of Atomic Density Guess
      -------------------------------------

 Sum of atomic energies:        -305.32340088

      Non-variational initial energy
      ------------------------------

 Total energy =    -311.101872
 1-e energy   =   -1118.625012
 2-e energy   =     449.922174
 HOMO         =      -0.131060
 LUMO         =      -0.114930


      Symmetry analysis of molecular orbitals - initial
      -------------------------------------------------

  Numbering of irreducible representations: 

     1 a1          2 a2          3 b1          4 b2      

  Orbital symmetries:

     1 a1          2 b1          3 b2          4 a2          5 a1      
     6 b2          7 a1          8 b2          9 a1         10 b2      
    11 b1         12 a1         13 b2         14 a2         15 a1      
    16 a1         17 b2         18 a1         19 b2         20 b1      
    21 a1         22 b1         23 b1         24 a2         25 a1      
    26 b2         27 a2         28 a1         29 b2         30 a1      
    31 b1         32 a1         33 b2         34 a1         35 a2      
    36 b2         37 b1         38 b2      


 Starting SCF solution at       1.0s



 ----------------------------------------------
         Quadratically convergent ROHF

 Convergence threshold     :          1.000E-08
 Maximum no. of iterations :           30
 Final Fock-matrix accuracy:          1.000E-10
 ----------------------------------------------


              iter       energy          gnorm     gmax       time
             ----- ------------------- --------- --------- --------
                 1     -307.1866658384  9.04D-01  2.08D-01      3.9
                 2     -307.2704758035  1.48D-01  3.30D-02      9.6
                 3     -307.2722429271  1.04D-02  2.83D-03     16.5
                 4     -307.2722669580  6.47D-05  1.89D-05     30.3
                 5     -307.2722669588  2.43D-09  8.22D-10     54.8


       Final RHF  results 
       ------------------ 

         Total SCF energy =   -307.272266958756
      One-electron energy =  -1123.939799656200
      Two-electron energy =    459.066566538891
 Nuclear repulsion energy =    357.600966158554

        Time for solution =     53.6s



       Symmetry analysis of molecular orbitals - final
       -----------------------------------------------

  Numbering of irreducible representations: 

     1 a1          2 a2          3 b1          4 b2      

  Orbital symmetries:

     1 a1          2 b2          3 b1          4 a1          5 a2      
     6 b2          7 a1          8 b2          9 a1         10 b2      
    11 b1         12 a1         13 b2         14 a2         15 a1      
    16 a1         17 b2         18 a1         19 b2         20 b1      
    21 b1         22 a1         23 a2         24 b1         25 b2      
    26 a1         27 a2         28 a1         29 b2         30 a1      
    31 a1         32 b1         33 b2         34 a1         35 b2      
    36 a2         37 b2         38 a1      

             Final eigenvalues
             -----------------

              1      
    1  -11.2576
    2  -11.2575
    3  -11.2405
    4  -11.2405
    5  -11.2400
    6  -11.2400
    7  -11.2313
    8  -11.2308
    9   -1.2211
   10   -1.0242
   11   -0.9683
   12   -0.9349
   13   -0.7871
   14   -0.7845
   15   -0.7568
   16   -0.7004
   17   -0.6514
   18   -0.6079
   19   -0.6060
   20   -0.5749
   21   -0.5378
   22   -0.5292
   23   -0.4432
   24   -0.4313
   25   -0.4122
   26   -0.4047
   27   -0.3815
   28   -0.2078
   29    0.0502
   30    0.1864
   31    0.2036
   32    0.2103
   33    0.2309
   34    0.2437
   35    0.2533
   36    0.2547
   37    0.2654
   38    0.2690

                       ROHF Final Molecular Orbital Analysis
                       -------------------------------------

 Vector    9  Occ=2.000000D+00  E=-1.221138D+00  Symmetry=a1
              MO Center=  1.1D-16,  9.1D-18,  1.5D-01, r^2= 1.8D+00
   Bfn.  Coefficient  Atom+Function         Bfn.  Coefficient  Atom+Function  
  ----- ------------  ---------------      ----- ------------  ---------------
    83      0.152426  10 C  s               102      0.152426  12 C  s         

 Vector   10  Occ=2.000000D+00  E=-1.024215D+00  Symmetry=b2
              MO Center= -2.7D-16,  1.4D-16, -1.4D-01, r^2= 2.6D+00
   Bfn.  Coefficient  Atom+Function         Bfn.  Coefficient  Atom+Function  
  ----- ------------  ---------------      ----- ------------  ---------------
    45      0.179814   6 C  s                64     -0.179814   8 C  s         

 Vector   11  Occ=2.000000D+00  E=-9.683051D-01  Symmetry=b1
              MO Center= -4.5D-16,  1.4D-16,  7.6D-03, r^2= 2.8D+00
   Bfn.  Coefficient  Atom+Function         Bfn.  Coefficient  Atom+Function  
  ----- ------------  ---------------      ----- ------------  ---------------
     7      0.199223   2 C  s                26      0.199223   4 C  s         
   121     -0.199223  14 C  s               140     -0.199223  16 C  s         
     8      0.171069   2 C  s                27      0.171069   4 C  s         
   122     -0.171069  14 C  s               141     -0.171069  16 C  s         

 Vector   12  Occ=2.000000D+00  E=-9.348999D-01  Symmetry=a1
              MO Center= -2.8D-17,  4.8D-16,  9.1D-02, r^2= 3.0D+00
   Bfn.  Coefficient  Atom+Function         Bfn.  Coefficient  Atom+Function  
  ----- ------------  ---------------      ----- ------------  ---------------
    83     -0.194910  10 C  s               102     -0.194910  12 C  s         
    45      0.184054   6 C  s                64      0.184054   8 C  s         
    84     -0.183876  10 C  s               103     -0.183876  12 C  s         
    46      0.172461   6 C  s                65      0.172461   8 C  s         

 Vector   13  Occ=2.000000D+00  E=-7.871451D-01  Symmetry=b2
              MO Center=  1.1D-17,  2.1D-16, -3.6D-03, r^2= 4.3D+00
   Bfn.  Coefficient  Atom+Function         Bfn.  Coefficient  Atom+Function  
  ----- ------------  ---------------      ----- ------------  ---------------
    84      0.229877  10 C  s               103     -0.229877  12 C  s         
    46     -0.193002   6 C  s                65      0.193002   8 C  s         
    45     -0.187446   6 C  s                64      0.187446   8 C  s         
    83      0.179385  10 C  s               102     -0.179385  12 C  s         
    39     -0.156383   5 H  s                58      0.156383   7 H  s         

 Vector   14  Occ=2.000000D+00  E=-7.844535D-01  Symmetry=a2
              MO Center=  1.6D-16, -9.7D-17, -7.8D-02, r^2= 3.9D+00
   Bfn.  Coefficient  Atom+Function         Bfn.  Coefficient  Atom+Function  
  ----- ------------  ---------------      ----- ------------  ---------------
     8      0.205030   2 C  s                27     -0.205030   4 C  s         
   122     -0.205030  14 C  s               141      0.205030  16 C  s         
     7      0.177209   2 C  s                26     -0.177209   4 C  s         
   121     -0.177209  14 C  s               140      0.177209  16 C  s         

 Vector   15  Occ=2.000000D+00  E=-7.567505D-01  Symmetry=a1
              MO Center= -9.2D-16, -7.0D-15, -1.9D-01, r^2= 4.3D+00
   Bfn.  Coefficient  Atom+Function         Bfn.  Coefficient  Atom+Function  
  ----- ------------  ---------------      ----- ------------  ---------------
    46      0.184174   6 C  s                65      0.184174   8 C  s         

 Vector   16  Occ=2.000000D+00  E=-7.003584D-01  Symmetry=a1
              MO Center= -5.6D-16,  2.1D-15,  2.1D-01, r^2= 4.4D+00
   Bfn.  Coefficient  Atom+Function         Bfn.  Coefficient  Atom+Function  
  ----- ------------  ---------------      ----- ------------  ---------------
     9      0.144733   2 C  px               28      0.144733   4 C  px        
   123     -0.144733  14 C  px              142     -0.144733  16 C  px        
    77      0.143084   9 H  s                96      0.143084  11 H  s         
    87      0.142343  10 C  pz              106      0.142343  12 C  pz        
     1      0.138291   1 H  s                20      0.138291   3 H  s         

 Vector   17  Occ=2.000000D+00  E=-6.514409D-01  Symmetry=b2
              MO Center= -8.9D-16,  7.0D-15,  1.9D-02, r^2= 5.2D+00
   Bfn.  Coefficient  Atom+Function         Bfn.  Coefficient  Atom+Function  
  ----- ------------  ---------------      ----- ------------  ---------------
    77      0.184074   9 H  s                96     -0.184074  11 H  s         
    39      0.180111   5 H  s                58     -0.180111   7 H  s         

 Vector   18  Occ=2.000000D+00  E=-6.079142D-01  Symmetry=a1
              MO Center= -1.5D-17, -5.4D-16, -1.5D-01, r^2= 3.7D+00
   Bfn.  Coefficient  Atom+Function         Bfn.  Coefficient  Atom+Function  
  ----- ------------  ---------------      ----- ------------  ---------------
    86     -0.221931  10 C  py              105      0.221931  12 C  py        
    49      0.211491   6 C  pz               68      0.211491   8 C  pz        
    39     -0.172333   5 H  s                58     -0.172333   7 H  s         

 Vector   19  Occ=2.000000D+00  E=-6.059734D-01  Symmetry=b2
              MO Center= -4.8D-16,  5.9D-15, -1.1D-01, r^2= 4.5D+00
   Bfn.  Coefficient  Atom+Function         Bfn.  Coefficient  Atom+Function  
  ----- ------------  ---------------      ----- ------------  ---------------
     9      0.185421   2 C  px               28     -0.185421   4 C  px        
   123     -0.185421  14 C  px              142      0.185421  16 C  px        
     1      0.178569   1 H  s                20     -0.178569   3 H  s         
   115      0.178569  13 H  s               134     -0.178569  15 H  s         
    49     -0.156666   6 C  pz               68      0.156666   8 C  pz        

 Vector   20  Occ=2.000000D+00  E=-5.749408D-01  Symmetry=b1
              MO Center= -1.1D-16, -1.3D-17,  1.2D-01, r^2= 3.2D+00
   Bfn.  Coefficient  Atom+Function         Bfn.  Coefficient  Atom+Function  
  ----- ------------  ---------------      ----- ------------  ---------------
    85      0.200716  10 C  px              104      0.200716  12 C  px        
    11      0.153046   2 C  pz               30      0.153046   4 C  pz        
   125     -0.153046  14 C  pz              144     -0.153046  16 C  pz        

 Vector   21  Occ=2.000000D+00  E=-5.378004D-01  Symmetry=b1
              MO Center= -1.6D-16, -1.2D-16, -2.1D-01, r^2= 3.6D+00
   Bfn.  Coefficient  Atom+Function         Bfn.  Coefficient  Atom+Function  
  ----- ------------  ---------------      ----- ------------  ---------------
    47      0.202088   6 C  px               66      0.202088   8 C  px        
     1     -0.154601   1 H  s                 9     -0.154060   2 C  px        
    20     -0.154601   3 H  s                28     -0.154060   4 C  px        
   115      0.154601  13 H  s               123     -0.154060  14 C  px        
   134      0.154601  15 H  s               142     -0.154060  16 C  px        

 Vector   22  Occ=2.000000D+00  E=-5.292101D-01  Symmetry=a1
              MO Center= -8.3D-18,  4.7D-16,  2.4D-01, r^2= 3.5D+00
   Bfn.  Coefficient  Atom+Function         Bfn.  Coefficient  Atom+Function  
  ----- ------------  ---------------      ----- ------------  ---------------
    87      0.213391  10 C  pz              106      0.213391  12 C  pz        
    77      0.166941   9 H  s                96      0.166941  11 H  s         

 Vector   23  Occ=2.000000D+00  E=-4.432111D-01  Symmetry=a2
              MO Center= -2.6D-15,  7.4D-16, -4.1D-01, r^2= 3.4D+00
   Bfn.  Coefficient  Atom+Function         Bfn.  Coefficient  Atom+Function  
  ----- ------------  ---------------      ----- ------------  ---------------
    47      0.298389   6 C  px               66     -0.298389   8 C  px        
    11     -0.158434   2 C  pz               30      0.158434   4 C  pz        
   125      0.158434  14 C  pz              144     -0.158434  16 C  pz        
     9     -0.153811   2 C  px               28      0.153811   4 C  px        
   123     -0.153811  14 C  px              142      0.153811  16 C  px        

 Vector   24  Occ=2.000000D+00  E=-4.312658D-01  Symmetry=b1
              MO Center=  1.7D-15, -5.5D-16,  4.2D-02, r^2= 2.9D+00
   Bfn.  Coefficient  Atom+Function         Bfn.  Coefficient  Atom+Function  
  ----- ------------  ---------------      ----- ------------  ---------------
    10      0.236707   2 C  py               29     -0.236707   4 C  py        
   124     -0.236707  14 C  py              143      0.236707  16 C  py        
    85     -0.177464  10 C  px              104     -0.177464  12 C  px        
    47     -0.153311   6 C  px               66     -0.153311   8 C  px        

 Vector   25  Occ=2.000000D+00  E=-4.121778D-01  Symmetry=b2
              MO Center= -1.5D-15,  1.3D-15,  2.3D-01, r^2= 3.6D+00
   Bfn.  Coefficient  Atom+Function         Bfn.  Coefficient  Atom+Function  
  ----- ------------  ---------------      ----- ------------  ---------------
    87      0.251797  10 C  pz              106     -0.251797  12 C  pz        
    11     -0.186541   2 C  pz               30      0.186541   4 C  pz        
   125     -0.186541  14 C  pz              144      0.186541  16 C  pz        
    77      0.182862   9 H  s                96     -0.182862  11 H  s         
    49      0.178945   6 C  pz               68     -0.178945   8 C  pz        

 Vector   26  Occ=2.000000D+00  E=-4.046785D-01  Symmetry=a1
              MO Center= -2.9D-15, -1.3D-15,  5.2D-01, r^2= 3.0D+00
   Bfn.  Coefficient  Atom+Function         Bfn.  Coefficient  Atom+Function  
  ----- ------------  ---------------      ----- ------------  ---------------
    86      0.321708  10 C  py              105     -0.321708  12 C  py        
    89      0.204312  10 C  py              108     -0.204312  12 C  py        

 Vector   27  Occ=2.000000D+00  E=-3.815494D-01  Symmetry=a2
              MO Center=  4.8D-15,  6.6D-16,  4.7D-01, r^2= 3.0D+00
   Bfn.  Coefficient  Atom+Function         Bfn.  Coefficient  Atom+Function  
  ----- ------------  ---------------      ----- ------------  ---------------
    85      0.296112  10 C  px              104     -0.296112  12 C  px        
    88      0.195997  10 C  px              107     -0.195997  12 C  px        
     9     -0.166232   2 C  px               28      0.166232   4 C  px        
   123     -0.166232  14 C  px              142      0.166232  16 C  px        
    11      0.157445   2 C  pz               30     -0.157445   4 C  pz        

 Vector   28  Occ=2.000000D+00  E=-2.077870D-01  Symmetry=a1
              MO Center=  4.3D-16,  4.7D-14, -8.4D-01, r^2= 3.2D+00
   Bfn.  Coefficient  Atom+Function         Bfn.  Coefficient  Atom+Function  
  ----- ------------  ---------------      ----- ------------  ---------------
    51      0.398203   6 C  py               70     -0.398203   8 C  py        
    48      0.310763   6 C  py               67     -0.310763   8 C  py        

 Vector   29  Occ=0.000000D+00  E= 5.021619D-02  Symmetry=b2
              MO Center=  1.0D-15, -4.3D-14, -8.1D-01, r^2= 3.5D+00
   Bfn.  Coefficient  Atom+Function         Bfn.  Coefficient  Atom+Function  
  ----- ------------  ---------------      ----- ------------  ---------------
    51      0.486365   6 C  py               70      0.486365   8 C  py        
    48      0.329347   6 C  py               67      0.329347   8 C  py        
    84      0.281385  10 C  s               103     -0.281385  12 C  s         

 Vector   30  Occ=0.000000D+00  E= 1.864139D-01  Symmetry=a1
              MO Center= -1.9D-16, -5.6D-16,  3.5D-01, r^2= 1.0D+01
   Bfn.  Coefficient  Atom+Function         Bfn.  Coefficient  Atom+Function  
  ----- ------------  ---------------      ----- ------------  ---------------
    78      0.773206   9 H  s                97      0.773206  11 H  s         
     2      0.715995   1 H  s                21      0.715995   3 H  s         
   116      0.715995  13 H  s               135      0.715995  15 H  s         
    84     -0.564007  10 C  s               103     -0.564007  12 C  s         
     8     -0.553390   2 C  s                27     -0.553390   4 C  s         

 Vector   31  Occ=0.000000D+00  E= 2.035711D-01  Symmetry=a1
              MO Center=  1.6D-16,  5.8D-16, -5.7D-01, r^2= 8.2D+00
   Bfn.  Coefficient  Atom+Function         Bfn.  Coefficient  Atom+Function  
  ----- ------------  ---------------      ----- ------------  ---------------
    84      1.035842  10 C  s               103      1.035842  12 C  s         
    40      0.985878   5 H  s                59      0.985878   7 H  s         
    46     -0.956294   6 C  s                65     -0.956294   8 C  s         
    78     -0.555029   9 H  s                97     -0.555029  11 H  s         
    52      0.379493   6 C  pz               71      0.379493   8 C  pz        

 Vector   32  Occ=0.000000D+00  E= 2.102660D-01  Symmetry=b1
              MO Center=  1.9D-15,  4.8D-15,  1.2D-01, r^2= 8.7D+00
   Bfn.  Coefficient  Atom+Function         Bfn.  Coefficient  Atom+Function  
  ----- ------------  ---------------      ----- ------------  ---------------
     8      1.018155   2 C  s                27      1.018155   4 C  s         
   122     -1.018155  14 C  s               141     -1.018155  16 C  s         
     2     -0.854806   1 H  s                21     -0.854806   3 H  s         
   116      0.854806  13 H  s               135      0.854806  15 H  s         
    88     -0.388761  10 C  px              107     -0.388761  12 C  px        

 Vector   33  Occ=0.000000D+00  E= 2.309315D-01  Symmetry=b2
              MO Center= -2.0D-14, -7.7D-17,  6.9D-01, r^2= 1.1D+01
   Bfn.  Coefficient  Atom+Function         Bfn.  Coefficient  Atom+Function  
  ----- ------------  ---------------      ----- ------------  ---------------
    78      1.196153   9 H  s                97     -1.196153  11 H  s         
     2      0.681237   1 H  s                21     -0.681237   3 H  s         
    90     -0.682638  10 C  pz              109      0.682638  12 C  pz        
   116      0.681237  13 H  s               135     -0.681237  15 H  s         
     8     -0.647697   2 C  s                27      0.647697   4 C  s         

 Vector   34  Occ=0.000000D+00  E= 2.437304D-01  Symmetry=a1
              MO Center=  1.2D-15,  2.0D-18,  2.8D-03, r^2= 1.1D+01
   Bfn.  Coefficient  Atom+Function         Bfn.  Coefficient  Atom+Function  
  ----- ------------  ---------------      ----- ------------  ---------------
    40      0.996583   5 H  s                59      0.996583   7 H  s         
    78      0.950932   9 H  s                97      0.950932  11 H  s         
     2     -0.784477   1 H  s                21     -0.784477   3 H  s         
   116     -0.784477  13 H  s               135     -0.784477  15 H  s         
    52      0.675120   6 C  pz               71      0.675120   8 C  pz        

 Vector   35  Occ=0.000000D+00  E= 2.532774D-01  Symmetry=b2
              MO Center=  6.2D-16, -1.2D-15, -1.3D+00, r^2= 1.0D+01
   Bfn.  Coefficient  Atom+Function         Bfn.  Coefficient  Atom+Function  
  ----- ------------  ---------------      ----- ------------  ---------------
    40      1.579486   5 H  s                59     -1.579486   7 H  s         
    52      0.952486   6 C  pz               71     -0.952486   8 C  pz        
    78     -0.888770   9 H  s                97      0.888770  11 H  s         
    46     -0.752607   6 C  s                65      0.752607   8 C  s         
    84      0.549312  10 C  s               103     -0.549312  12 C  s         

 Vector   36  Occ=0.000000D+00  E= 2.547165D-01  Symmetry=a2
              MO Center= -3.1D-13, -8.0D-14,  4.9D-02, r^2= 1.1D+01
   Bfn.  Coefficient  Atom+Function         Bfn.  Coefficient  Atom+Function  
  ----- ------------  ---------------      ----- ------------  ---------------
     2      1.311460   1 H  s                21     -1.311460   3 H  s         
   116     -1.311460  13 H  s               135      1.311460  15 H  s         
    12     -0.831530   2 C  px               31      0.831530   4 C  px        
   126     -0.831530  14 C  px              145      0.831530  16 C  px        
     8     -0.723610   2 C  s                27      0.723610   4 C  s         

 Vector   37  Occ=0.000000D+00  E= 2.653705D-01  Symmetry=b2
              MO Center=  3.4D-13,  1.3D-15,  5.2D-01, r^2= 1.2D+01
   Bfn.  Coefficient  Atom+Function         Bfn.  Coefficient  Atom+Function  
  ----- ------------  ---------------      ----- ------------  ---------------
    12     -1.393906   2 C  px               31      1.393906   4 C  px        
   126      1.393906  14 C  px              145     -1.393906  16 C  px        
    90      1.349115  10 C  pz              109     -1.349115  12 C  pz        
    78     -1.340206   9 H  s                97      1.340206  11 H  s         
     2      1.316666   1 H  s                21     -1.316666   3 H  s         

 Vector   38  Occ=0.000000D+00  E= 2.689535D-01  Symmetry=a1
              MO Center=  1.2D-15, -1.2D-15,  2.6D-01, r^2= 8.0D+00
   Bfn.  Coefficient  Atom+Function         Bfn.  Coefficient  Atom+Function  
  ----- ------------  ---------------      ----- ------------  ---------------
    78      1.030795   9 H  s                97      1.030795  11 H  s         
    90     -0.923172  10 C  pz              109     -0.923172  12 C  pz        
    40     -0.873884   5 H  s                59     -0.873884   7 H  s         
    52     -0.740575   6 C  pz               71     -0.740575   8 C  pz        
    14     -0.456150   2 C  pz               33     -0.456150   4 C  pz        

 Vector   39  Occ=0.000000D+00  E= 2.694971D-01  Symmetry=b1
              MO Center= -1.4D-15,  8.8D-14,  2.8D-01, r^2= 6.9D+00
   Bfn.  Coefficient  Atom+Function         Bfn.  Coefficient  Atom+Function  
  ----- ------------  ---------------      ----- ------------  ---------------
     2      0.857318   1 H  s                21      0.857318   3 H  s         
   116     -0.857318  13 H  s               135     -0.857318  15 H  s         
    12     -0.801271   2 C  px               31     -0.801271   4 C  px        
   126     -0.801271  14 C  px              145     -0.801271  16 C  px        
    88     -0.628292  10 C  px              107     -0.628292  12 C  px        

 Vector   40  Occ=0.000000D+00  E= 3.320050D-01  Symmetry=b2
              MO Center= -7.4D-15,  1.5D-15,  7.2D-01, r^2= 4.4D+00
   Bfn.  Coefficient  Atom+Function         Bfn.  Coefficient  Atom+Function  
  ----- ------------  ---------------      ----- ------------  ---------------
    89      1.318305  10 C  py              108      1.318305  12 C  py        
    84      0.706120  10 C  s               103     -0.706120  12 C  s         
    13      0.547906   2 C  py               32      0.547906   4 C  py        
   127      0.547906  14 C  py              146      0.547906  16 C  py        
     8      0.541847   2 C  s                27     -0.541847   4 C  s         

 Vector   41  Occ=0.000000D+00  E= 3.756621D-01  Symmetry=b1
              MO Center=  1.1D-16,  7.1D-16, -3.3D-01, r^2= 4.7D+00
   Bfn.  Coefficient  Atom+Function         Bfn.  Coefficient  Atom+Function  
  ----- ------------  ---------------      ----- ------------  ---------------
    50      1.144633   6 C  px               69      1.144633   8 C  px        
    14      0.778431   2 C  pz               33      0.778431   4 C  pz        
   128     -0.778431  14 C  pz              147     -0.778431  16 C  pz        
    88     -0.587491  10 C  px              107     -0.587491  12 C  px        
     8     -0.420276   2 C  s                27     -0.420276   4 C  s         

 Vector   42  Occ=0.000000D+00  E= 3.757759D-01  Symmetry=a2
              MO Center=  6.8D-16, -6.2D-16,  3.3D-02, r^2= 4.5D+00
   Bfn.  Coefficient  Atom+Function         Bfn.  Coefficient  Atom+Function  
  ----- ------------  ---------------      ----- ------------  ---------------
    13      0.931111   2 C  py               32      0.931111   4 C  py        
   127     -0.931111  14 C  py              146     -0.931111  16 C  py        
    88      0.730883  10 C  px              107     -0.730883  12 C  px        
    12      0.554064   2 C  px               31     -0.554064   4 C  px        
   126      0.554064  14 C  px              145     -0.554064  16 C  px        

 Vector   43  Occ=0.000000D+00  E= 4.099718D-01  Symmetry=b2
              MO Center=  1.5D-15, -3.1D-16, -1.3D-01, r^2= 5.6D+00
   Bfn.  Coefficient  Atom+Function         Bfn.  Coefficient  Atom+Function  
  ----- ------------  ---------------      ----- ------------  ---------------
    84      1.862982  10 C  s               103     -1.862982  12 C  s         
    90     -1.307646  10 C  pz              109      1.307646  12 C  pz        
    46     -1.243778   6 C  s                65      1.243778   8 C  s         
    14     -1.104905   2 C  pz               33      1.104905   4 C  pz        
   128     -1.104905  14 C  pz              147      1.104905  16 C  pz        

 Vector   44  Occ=0.000000D+00  E= 4.210450D-01  Symmetry=a2
              MO Center=  1.6D-15, -2.3D-16, -3.4D-01, r^2= 6.5D+00
   Bfn.  Coefficient  Atom+Function         Bfn.  Coefficient  Atom+Function  
  ----- ------------  ---------------      ----- ------------  ---------------
     8      2.110473   2 C  s                27     -2.110473   4 C  s         
   122     -2.110473  14 C  s               141      2.110473  16 C  s         
    12     -1.235596   2 C  px               31      1.235596   4 C  px        
   126     -1.235596  14 C  px              145      1.235596  16 C  px        
    13      1.129385   2 C  py               32      1.129385   4 C  py        

 Vector   45  Occ=0.000000D+00  E= 4.308898D-01  Symmetry=a1
              MO Center=  2.8D-15,  6.0D-14, -1.4D-02, r^2= 5.9D+00
   Bfn.  Coefficient  Atom+Function         Bfn.  Coefficient  Atom+Function  
  ----- ------------  ---------------      ----- ------------  ---------------
    46     -1.930920   6 C  s                65     -1.930920   8 C  s         
     8      1.811212   2 C  s                27      1.811212   4 C  s         
   122      1.811212  14 C  s               141      1.811212  16 C  s         
    84     -1.453864  10 C  s               103     -1.453864  12 C  s         
    52     -1.374628   6 C  pz               71     -1.374628   8 C  pz        

 Vector   46  Occ=0.000000D+00  E= 5.139605D-01  Symmetry=a2
              MO Center=  3.5D-16,  4.3D-16,  1.4D-01, r^2= 5.2D+00
   Bfn.  Coefficient  Atom+Function         Bfn.  Coefficient  Atom+Function  
  ----- ------------  ---------------      ----- ------------  ---------------
    88      1.504588  10 C  px              107     -1.504588  12 C  px        
    14     -1.363456   2 C  pz               33      1.363456   4 C  pz        
   128      1.363456  14 C  pz              147     -1.363456  16 C  pz        
    50     -1.291136   6 C  px               69      1.291136   8 C  px        
    13     -0.765137   2 C  py               32     -0.765137   4 C  py        


 center of mass
 --------------
 x =   0.00000000 y =   0.00000000 z =   0.00073946

 moments of inertia (a.u.)
 ------------------
         598.753468619020           0.000000000000           0.000000000000
           0.000000000000         520.467351248341           0.000000000000
           0.000000000000           0.000000000000         611.362851002771

  Mulliken analysis of the total density
  --------------------------------------

    Atom       Charge   Shell Charges
 -----------   ------   -------------------------------------------------------
    1 H    1     1.00   0.76  0.21  0.03
    2 C    6     5.98   2.01  0.64  0.55  1.97  0.72  0.10
    3 H    1     1.00   0.76  0.21  0.03
    4 C    6     5.98   2.01  0.64  0.55  1.97  0.72  0.10
    5 H    1     0.95   0.73  0.19  0.03
    6 C    6     6.08   2.00  0.67  0.57  1.85  0.92  0.07
    7 H    1     0.95   0.73  0.19  0.03
    8 C    6     6.08   2.00  0.67  0.57  1.85  0.92  0.07
    9 H    1     1.00   0.75  0.21  0.03
   10 C    6     6.00   2.01  0.63  0.57  1.98  0.72  0.09
   11 H    1     1.00   0.75  0.21  0.03
   12 C    6     6.00   2.01  0.63  0.57  1.98  0.72  0.09
   13 H    1     1.00   0.76  0.21  0.03
   14 C    6     5.98   2.01  0.64  0.55  1.97  0.72  0.10
   15 H    1     1.00   0.76  0.21  0.03
   16 C    6     5.98   2.01  0.64  0.55  1.97  0.72  0.10

       Multipole analysis of the density wrt the origin
       ------------------------------------------------

     L   x y z        total         open         nuclear
     -   - - -        -----         ----         -------
     0   0 0 0     -0.000000      0.000000     56.000000

     1   1 0 0      0.000000      0.000000      0.000000
     1   0 1 0     -0.000000      0.000000     -0.000000
     1   0 0 1      0.080954      0.000000     -0.000000

     2   2 0 0    -35.301222      0.000000    163.262786
     2   1 1 0     -0.000000      0.000000      0.000000
     2   1 0 1      0.000000      0.000000      0.000000
     2   0 2 0    -35.610798      0.000000    201.382432
     2   0 1 1      0.000000      0.000000      0.000000
     2   0 0 2    -35.536508      0.000000    155.753068

WARNING!!!!!!!! ROHF FOR MRCC CODE. OCC HAS BEEN CHANGED.
Occupation nocc(1)         28 nocc(2)         28 mult          1 nopen          0
                   NWChem Extensible Many-Electron Theory Module
                   ---------------------------------------------

              ======================================================
                   This portion of the program was automatically
                  generated by a Tensor Contraction Engine (TCE).
                  The development of this portion of the program
                 and TCE was supported by US Department of Energy,
                Office of Science, Office of Basic Energy Science.
                      TCE is a product of Battelle and PNNL.
              Please cite: S.Hirata, J.Phys.Chem.A 107, 9887 (2003).
              ======================================================

                       cubane MK-CCSD(2,2)/cc-pVDZ optimize


            General Information
            -------------------
      Number of processors :     1
         Wavefunction type : Restricted open-shell Hartree-Fock
          No. of electrons :    56
           Alpha electrons :    28
            Beta electrons :    28
           No. of orbitals :   304
            Alpha orbitals :   152
             Beta orbitals :   152
        Alpha frozen cores :     8
         Beta frozen cores :     8
     Alpha frozen virtuals :     0
      Beta frozen virtuals :     0
         Spin multiplicity : singlet 
    Number of AO functions :   152
       Number of AO shells :    72
        Use of symmetry is : on 
      Symmetry adaption is : on 
         Schwarz screening : 0.10D-09

          Correlation Information
          -----------------------
          Calculation type : State Specific Multireference Mukherjee's CCSD theory       
   Perturbative correction : none                                                        
            Max iterations :      100
        Residual threshold : 0.10D-06
     T(0) DIIS level shift : 0.00D+00
     L(0) DIIS level shift : 0.00D+00
     T(1) DIIS level shift : 0.00D+00
     L(1) DIIS level shift : 0.00D+00
     T(R) DIIS level shift : 0.00D+00
     T(I) DIIS level shift : 0.00D+00
   CC-T/L Amplitude update :  5-th order DIIS
                I/O scheme : Exclusive Access File Library

MRCC module - reference analysis

Fermi vacuum according to SCF wave function         has been requested.

MRCC module finished


 Global files accessible by all nodes assumed

 Parallel file system coherency ......... OK

            Memory Information
            ------------------
          Available GA space size is     262097792 doubles
          Available MA space size is      26204116 doubles

Maximum block size doubles

nbf,nmo(1):   152   152


Blocks for reference    1

 Block   Spin    Irrep     Size     Offset   Alpha    Active
 -----------------------------------------------------------
   1    alpha     a1     7 doubles       0       1       F
   2    alpha     a2     3 doubles       7       2       F
   3    alpha     b1     4 doubles      10       3       F
   4    alpha     b2     5 doubles      14       4       F
   5    alpha     a1     1 doubles      19       5       T
   6    beta      a1     7 doubles      20       6       F
   7    beta      a2     3 doubles      27       7       F
   8    beta      b1     4 doubles      30       8       F
   9    beta      b2     5 doubles      34       9       F
  10    beta      a1     1 doubles      39      10       T
  11    alpha     b2     1 doubles      40      11       T
  12    alpha     a1    18 doubles      41      12       F
  13    alpha     a1    18 doubles      59      13       F
  14    alpha     a2    25 doubles      77      14       F
  15    alpha     b1    24 doubles     102      15       F
  16    alpha     b2    19 doubles     126      16       F
  17    alpha     b2    19 doubles     145      17       F
  18    beta      b2     1 doubles     164      18       T
  19    beta      a1    18 doubles     165      19       F
  20    beta      a1    18 doubles     183      20       F
  21    beta      a2    25 doubles     201      21       F
  22    beta      b1    24 doubles     226      22       F
  23    beta      b2    19 doubles     250      23       F
  24    beta      b2    19 doubles     269      24       F

Blocks for reference    2

 Block   Spin    Irrep     Size     Offset   Alpha    Active
 -----------------------------------------------------------
   1    alpha     a1     7 doubles       0       1       F
   2    alpha     a2     3 doubles       7       2       F
   3    alpha     b1     4 doubles      10       3       F
   4    alpha     b2     5 doubles      14       4       F
   5    alpha     b2     1 doubles      19       5       T
   6    beta      a1     7 doubles      20       6       F
   7    beta      a2     3 doubles      27       7       F
   8    beta      b1     4 doubles      30       8       F
   9    beta      b2     5 doubles      34       9       F
  10    beta      b2     1 doubles      39      10       T
  11    alpha     a1     1 doubles      40      11       T
  12    alpha     a1    18 doubles      41      12       F
  13    alpha     a1    18 doubles      59      13       F
  14    alpha     a2    25 doubles      77      14       F
  15    alpha     b1    24 doubles     102      15       F
  16    alpha     b2    19 doubles     126      16       F
  17    alpha     b2    19 doubles     145      17       F
  18    beta      a1     1 doubles     164      18       T
  19    beta      a1    18 doubles     165      19       F
  20    beta      a1    18 doubles     183      20       F
  21    beta      a2    25 doubles     201      21       F
  22    beta      b1    24 doubles     226      22       F
  23    beta      b2    19 doubles     250      23       F
  24    beta      b2    19 doubles     269      24       F

MRCC tiling completed in             0.0            0.0
tce_ao1e_fock2e        9.56400        9.49516
F:     1 in bytes =                87040
tce_mo1e        0.00400        0.00430
eone,etwo,enrep,energy  -1123.939799656200    459.066566538775    357.600966158554   -307.272266958872
mrcc_uhf_energy        2.94000        2.84923
tce_ao1e_fock2e        9.89200        9.83483
F:     2 in bytes =                87040
tce_mo1e        0.00000        0.00398
eone,etwo,enrep,energy  -1123.525788895266    458.728470190429    357.600966158554   -307.196352546283
mrcc_uhf_energy        3.07600        3.01047
2-e(intermediate) ./cubane.v2i         in bytes=         8159223808
Ref.   1 Half 2-e         595.49         319.95
V 2-e ./cubane.v2001       in bytes=         1437934592
Ref.   1 2-e transform. completed
2-e(intermediate) ./cubane.v2i         in bytes=         8159223808
Ref.   2 Half 2-e         592.88         317.08
V 2-e ./cubane.v2002       in bytes=         1437934592
Ref.   2 2-e transform. completed

Integral replication completed.
Proceeding the allocation of the memory for intermediates.

T2:     1 in bytes =             22333856
T1:     1 in bytes =                10464
T2:     2 in bytes =             22290336
T1:     2 in bytes =                10528
Done.


Symmetry of references

Ref.   1 sym:a1  
Ref.   2 sym:a1  
MR MkCCSD, version 1.0

Heff
=============================================
    0    1 -664.87323312    0.09099644
    0    2    0.09099644 -664.79731870

Eigenvalues (real and imaginary)
=============================================
 -664.933871554675    0.00000000
 -664.736680267587    0.00000000

Left eigenvectors
=============================================
    1   -0.83215940   -0.55453650
    2    0.55453650   -0.83215940

Right eigenvectors
=============================================
VR    1   -0.83215940   -0.55453650
VR    2    0.55453650   -0.83215940
Target root:    1

MkCC iter. #   1      -664.9338715546746      -307.3329053961211      -664.9338715546746
ydot R:  0.043047733195  1.462079772375
Iter cpu            33.4           20.1   1

Heff
=============================================
    0    1 -665.76702713    0.07255534
    0    2    0.06541417 -665.39818941

Eigenvalues (real and imaginary)
=============================================
 -665.779474885387    0.00000000
 -665.385741654263    0.00000000

Left eigenvectors
=============================================
    1   -0.98237192   -0.16909174
    2    0.18693691   -0.98560032

Right eigenvectors
=============================================
VR    1   -0.98560032   -0.18693691
VR    2    0.16909174   -0.98237192
Target root:    1

MkCC iter. #   2      -665.7794748853871      -308.1785087268336        -0.8456033307125
ydot R:  0.104266729800  0.436111572451
Iter cpu            34.6           20.8   2

Heff
=============================================
    0    1 -665.97820170    0.07134666
    0    2    0.06790884 -665.48024398

Eigenvalues (real and imaginary)
=============================================
 -665.987748545505    0.00000000
 -665.470697131823    0.00000000

Left eigenvectors
=============================================
    1   -0.99026228   -0.13262725
    2    0.13921432   -0.99116599

Right eigenvectors
=============================================
VR    1   -0.99116599   -0.13921432
VR    2    0.13262725   -0.99026228
Target root:    1

MkCC iter. #   3      -665.9877485455050      -308.3867823869515        -0.2082736601179
ydot R:  0.037375328755  0.105122658510
Iter cpu            34.1           20.0   3

Heff
=============================================
    0    1 -666.00661671    0.07082721
    0    2    0.06917164 -665.53557756

Eigenvalues (real and imaginary)
=============================================
 -666.016797571314    0.00000000
 -665.525396699414    0.00000000

Left eigenvectors
=============================================
    1   -0.98934150   -0.14227986
    2    0.14561385   -0.98982647

Right eigenvectors
=============================================
VR    1   -0.98982647   -0.14561385
VR    2    0.14227986   -0.98934150
Target root:    1

MkCC iter. #   4      -666.0167975713144      -308.4158314127609        -0.0290490258094
ydot R:  0.012143152836  0.041560606556
Iter cpu            33.8           20.1   4

Heff
=============================================
    0    1 -666.01534010    0.07033847
    0    2    0.07008646 -665.58818643

Eigenvalues (real and imaginary)
=============================================
 -666.026585062055    0.00000000
 -665.576941469800    0.00000000

Left eigenvectors
=============================================
    1   -0.98737213   -0.15786461
    2    0.15841801   -0.98746077

Right eigenvectors
=============================================
VR    1   -0.98746077   -0.15841801
VR    2    0.15786461   -0.98737213
Target root:    1

MkCC iter. #   5      -666.0265850620546      -308.4256189035010        -0.0097874907401
ydot R:  0.005260795430  0.024104963741

 X matrix
-------------------------

              1         2         3         4         5
    1  -0.04503   0.18496  -0.22331  -1.36966   2.45304
-------------------------

Iter cpu            34.7           20.5   5

Heff
=============================================
    0    1 -666.04108866    0.06902549
    0    2    0.07022175 -665.68479811

Eigenvalues (real and imaginary)
=============================================
 -666.054209770153    0.00000000
 -665.671677005545    0.00000000

Left eigenvectors
=============================================
    1   -0.98298729   -0.18674672
    2    0.18367362   -0.98240809

Right eigenvectors
=============================================
VR    1   -0.98240809   -0.18367362
VR    2    0.18674672   -0.98298729
Target root:    1

MkCC iter. #   6      -666.0542097701529      -308.4532436115993        -0.0276247080983
ydot R:  0.008065797015  0.044214547903
Iter cpu            34.9           20.1   6

Heff
=============================================
    0    1 -666.01933693    0.06860857
    0    2    0.07144410 -665.72911680

Eigenvalues (real and imaginary)
=============================================
 -666.035343615307    0.00000000
 -665.713110111340    0.00000000

Left eigenvectors
=============================================
    1   -0.97580894   -0.22720302
    2    0.21862505   -0.97384742

Right eigenvectors
=============================================
VR    1   -0.97384742   -0.21862505
VR    2    0.22720302   -0.97580894
Target root:    1

MkCC iter. #   7      -666.0353436153069      -308.4343774567534         0.0188661548459
ydot R:  0.005170516226  0.022167765453
Iter cpu            34.6           20.2   7

Heff
=============================================
    0    1 -666.02101120    0.06806037
    0    2    0.07106625 -665.77421672

Eigenvalues (real and imaginary)
=============================================
 -666.039260254899    0.00000000
 -665.755967664008    0.00000000

Left eigenvectors
=============================================
    1   -0.96857546   -0.25898240
    2    0.24871989   -0.96588204

Right eigenvectors
=============================================
VR    1   -0.96588204   -0.24871989
VR    2    0.25898240   -0.96857546
Target root:    1

MkCC iter. #   8      -666.0392602548991      -308.4382940963455        -0.0039166395921
ydot R:  0.004311070412  0.021641283630
Iter cpu            33.9           20.1   8

Heff
=============================================
    0    1 -666.01999982    0.06749473
    0    2    0.07116999 -665.81552801

Eigenvalues (real and imaginary)
=============================================
 -666.041278207947    0.00000000
 -665.794249627333    0.00000000

Left eigenvectors
=============================================
    1   -0.95809491   -0.30067210
    2    0.28645094   -0.95372758

Right eigenvectors
=============================================
VR    1   -0.95372758   -0.28645094
VR    2    0.30067210   -0.95809491
Target root:    1

MkCC iter. #   9      -666.0412782079471      -308.4403120493936        -0.0020179530480
ydot R:  0.004922122585  0.022361117791
Iter cpu            33.7           20.0   9

Heff
=============================================
    0    1 -666.01982369    0.06691070
    0    2    0.07114689 -665.85284699

Eigenvalues (real and imaginary)
=============================================
 -666.044644121242    0.00000000
 -665.828026558880    0.00000000

Left eigenvectors
=============================================
    1   -0.94419295   -0.34779112
    2    0.32939289   -0.93757204

Right eigenvectors
=============================================
VR    1   -0.93757204   -0.32939289
VR    2    0.34779112   -0.94419295
Target root:    1

MkCC iter. #  10      -666.0446441212416      -308.4436779626881        -0.0033659132945
ydot R:  0.005444597932  0.022263275192

 X matrix
-------------------------

              1         2         3         4         5
    1   0.35066   4.45041   4.58581 -25.23824  16.85135
-------------------------

Iter cpu            34.1           20.6  10

Heff
=============================================
    0    1 -666.02611462    0.06560405
    0    2    0.07118759 -665.82456710

Eigenvalues (real and imaginary)
=============================================
 -666.047101055910    0.00000000
 -665.803580663461    0.00000000

Left eigenvectors
=============================================
    1   -0.95918692   -0.30468534
    2    0.28277280   -0.95245307

Right eigenvectors
=============================================
VR    1   -0.95245307   -0.28277280
VR    2    0.30468534   -0.95918692
Target root:    1

MkCC iter. #  11      -666.0471010559097      -308.4461348973562        -0.0024569346681
ydot R:  0.007396008552  0.029748116896
Iter cpu            34.3           20.2  11

Heff
=============================================
    0    1 -666.02195303    0.06562708
    0    2    0.07112497 -665.86154280

Eigenvalues (real and imaginary)
=============================================
 -666.047107228131    0.00000000
 -665.836388602774    0.00000000

Left eigenvectors
=============================================
    1   -0.94277687   -0.35790066
    2    0.33342432   -0.93375967

Right eigenvectors
=============================================
VR    1   -0.93375967   -0.33342432
VR    2    0.35790066   -0.94277687
Target root:    1

MkCC iter. #  12      -666.0471072281310      -308.4461410695775        -0.0000061722213
ydot R:  0.003511651862  0.023560346055
Iter cpu            33.6           20.1  12

Heff
=============================================
    0    1 -666.02019791    0.06551171
    0    2    0.07112410 -665.89337463

Eigenvalues (real and imaginary)
=============================================
 -666.049955457795    0.00000000
 -665.863617086891    0.00000000

Left eigenvectors
=============================================
    1   -0.92251181   -0.41356680
    2    0.38596887   -0.91047378

Right eigenvectors
=============================================
VR    1   -0.91047378   -0.38596887
VR    2    0.41356680   -0.92251181
Target root:    1

MkCC iter. #  13      -666.0499554577955      -308.4489892992419        -0.0028482296644
ydot R:  0.003504130921  0.020574743046
Iter cpu            34.4           21.0  13

Heff
=============================================
    0    1 -666.01945526    0.06531016
    0    2    0.07115346 -665.91870037

Eigenvalues (real and imaginary)
=============================================
 -666.053841784600    0.00000000
 -665.884313840031    0.00000000

Left eigenvectors
=============================================
    1   -0.90037032   -0.46588178
    2    0.43512445   -0.88484698

Right eigenvectors
=============================================
VR    1   -0.88484698   -0.43512445
VR    2    0.46588178   -0.90037032
Target root:    1

MkCC iter. #  14      -666.0538417846004      -308.4528756260469        -0.0038863268049
ydot R:  0.003652012556  0.016629218021
Iter cpu            34.0           19.9  14

Heff
=============================================
    0    1 -666.01900825    0.06508645
    0    2    0.07116635 -665.93704062

Eigenvalues (real and imaginary)
=============================================
 -666.057470253882    0.00000000
 -665.898578618079    0.00000000

Left eigenvectors
=============================================
    1   -0.87973906   -0.50874726
[...]
   18 Stretch                 14    16                       1.59215    0.00000
   19 Stretch                 15    16                       1.10210    0.00000
   20 Bend                     1     2     4               118.96607   -0.00000
   21 Bend                     1     2     6               122.10832   -0.00001
   22 Bend                     1     2    10               124.47721   -0.00000
   23 Bend                     2     4     3               118.96607   -0.00000
   24 Bend                     2     4     8               105.60722    0.00001
   25 Bend                     2     4    12                89.45765    0.00000
   26 Bend                     2     6     5               134.28704    0.00004
   27 Bend                     2     6    14                91.35302   -0.00010
   28 Bend                     2    10     9               124.60295   -0.00003
   29 Bend                     2    10    12                90.54235   -0.00000
   30 Bend                     2    10    14                87.42370    0.00007
   31 Bend                     3     4     8               122.10832   -0.00001
   32 Bend                     3     4    12               124.47721   -0.00000
   33 Bend                     4     2     6               105.60722    0.00001
   34 Bend                     4     2    10                89.45765    0.00000
   35 Bend                     4     8     7               134.28704    0.00004
   36 Bend                     4     8    16                91.35302   -0.00010
   37 Bend                     4    12    10                90.54235   -0.00000
   38 Bend                     4    12    11               124.60295   -0.00003
   39 Bend                     4    12    16                87.42370    0.00007
   40 Bend                     5     6    14               134.28704    0.00004
   41 Bend                     6     2    10                88.52387    0.00001
   42 Bend                     6    14    10                88.52387    0.00001
   43 Bend                     6    14    13               122.10832   -0.00001
   44 Bend                     6    14    16               105.60722    0.00001
   45 Bend                     7     8    16               134.28704    0.00004
   46 Bend                     8     4    12                88.52387    0.00001
   47 Bend                     8    16    12                88.52387    0.00001
   48 Bend                     8    16    14               105.60722    0.00001
   49 Bend                     8    16    15               122.10832   -0.00001
   50 Bend                     9    10    12               127.46892    0.00001
   51 Bend                     9    10    14               124.60295   -0.00003
   52 Bend                    10    12    11               127.46892    0.00001
   53 Bend                    10    12    16                90.54235   -0.00000
   54 Bend                    10    14    13               124.47721   -0.00000
   55 Bend                    10    14    16                89.45765    0.00000
   56 Bend                    11    12    16               124.60295   -0.00003
   57 Bend                    12    10    14                90.54235   -0.00000
   58 Bend                    12    16    14                89.45765    0.00000
   59 Bend                    12    16    15               124.47721   -0.00000
   60 Bend                    13    14    16               118.96607   -0.00000
   61 Bend                    14    16    15               118.96607   -0.00000
   62 Torsion                  1     2     4     3          -0.00000    0.00000
   63 Torsion                  1     2     4     8         141.75774   -0.00001
   64 Torsion                  1     2     4    12        -129.92654    0.00001
   65 Torsion                  1     2     6     5         -36.52703   -0.00030
   66 Torsion                  1     2     6    14         146.36286   -0.00001
   67 Torsion                  1     2    10     9         -12.69184    0.00001
   68 Torsion                  1     2    10    12         125.52147   -0.00001
   69 Torsion                  1     2    10    14        -143.96002   -0.00001
   70 Torsion                  2     4     8     7        -103.72973    0.00030
   71 Torsion                  2     4     8    16          73.38038    0.00001
   72 Torsion                  2     4    12    10          -0.00000   -0.00000
   73 Torsion                  2     4    12    11         138.21330   -0.00001
   74 Torsion                  2     4    12    16         -90.51852    0.00000
   75 Torsion                  2     6    14    10         -15.64385    0.00001
   76 Torsion                  2     6    14    13        -146.36286    0.00001
   77 Torsion                  2     6    14    16          73.38038    0.00001
   78 Torsion                  2    10    12     4           0.00000    0.00000
   79 Torsion                  2    10    12    11        -136.28570    0.00004
   80 Torsion                  2    10    12    16          87.42860    0.00007
   81 Torsion                  2    10    14     6          15.10925    0.00001
   82 Torsion                  2    10    14    13         143.96002    0.00001
   83 Torsion                  2    10    14    16         -90.51852    0.00000
   84 Torsion                  3     4     2     6        -141.75774    0.00001
   85 Torsion                  3     4     2    10         129.92654   -0.00001
   86 Torsion                  3     4     8     7          36.52703    0.00030
   87 Torsion                  3     4     8    16        -146.36286    0.00001
   88 Torsion                  3     4    12    10        -125.52147    0.00001
   89 Torsion                  3     4    12    11          12.69184   -0.00001
   90 Torsion                  3     4    12    16         143.96002    0.00001
   91 Torsion                  4     2     6     5         103.72973   -0.00030
   92 Torsion                  4     2     6    14         -73.38038   -0.00001
   93 Torsion                  4     2    10     9        -138.21330    0.00001
   94 Torsion                  4     2    10    12           0.00000    0.00000
   95 Torsion                  4     2    10    14          90.51852   -0.00000
   96 Torsion                  4     8    16    12          15.64385   -0.00001
   97 Torsion                  4     8    16    14         -73.38038   -0.00001
   98 Torsion                  4     8    16    15         146.36286   -0.00001
   99 Torsion                  4    12    10     9         136.28570   -0.00004
  100 Torsion                  4    12    10    14         -87.42860   -0.00007
  101 Torsion                  4    12    16     8         -15.10925   -0.00001
  102 Torsion                  4    12    16    14          90.51852   -0.00000
  103 Torsion                  4    12    16    15        -143.96002   -0.00001
  104 Torsion                  5     6     2    10        -167.24604   -0.00030
  105 Torsion                  5     6    14    10         167.24604    0.00030
  106 Torsion                  5     6    14    13          36.52703    0.00030
  107 Torsion                  5     6    14    16        -103.72973    0.00030
  108 Torsion                  6     2     4     8          -0.00000   -0.00000
  109 Torsion                  6     2     4    12          88.31571    0.00001
  110 Torsion                  6     2    10     9         116.15893   -0.00000
  111 Torsion                  6     2    10    12        -105.62776   -0.00001
  112 Torsion                  6     2    10    14         -15.10925   -0.00001
  113 Torsion                  6    14    10     9        -116.15893    0.00000
  114 Torsion                  6    14    10    12         105.62776    0.00001
  115 Torsion                  6    14    16     8           0.00000    0.00000
  116 Torsion                  6    14    16    12         -88.31571   -0.00001
  117 Torsion                  6    14    16    15         141.75774   -0.00001
  118 Torsion                  7     8     4    12         167.24604    0.00030
  119 Torsion                  7     8    16    12        -167.24604   -0.00030
  120 Torsion                  7     8    16    14         103.72973   -0.00030
  121 Torsion                  7     8    16    15         -36.52703   -0.00030
  122 Torsion                  8     4     2    10         -88.31571   -0.00001
  123 Torsion                  8     4    12    10         105.62776    0.00001
  124 Torsion                  8     4    12    11        -116.15893    0.00000
  125 Torsion                  8     4    12    16          15.10925    0.00001
  126 Torsion                  8    16    12    10        -105.62776   -0.00001
  127 Torsion                  8    16    12    11         116.15893   -0.00000
  128 Torsion                  8    16    14    10          88.31571    0.00001
  129 Torsion                  8    16    14    13        -141.75774    0.00001
  130 Torsion                  9    10    12    11           0.00000    0.00000
  131 Torsion                  9    10    12    16        -136.28570    0.00004
  132 Torsion                  9    10    14    13          12.69184   -0.00001
  133 Torsion                  9    10    14    16         138.21330   -0.00001
  134 Torsion                 10     2     4    12           0.00000    0.00000
  135 Torsion                 10     2     6    14          15.64385   -0.00001
  136 Torsion                 10    12    16    14          -0.00000   -0.00000
  137 Torsion                 10    12    16    15         125.52147   -0.00001
  138 Torsion                 10    14    16    12          -0.00000   -0.00000
  139 Torsion                 10    14    16    15        -129.92654    0.00001
  140 Torsion                 11    12    10    14         136.28570   -0.00004
  141 Torsion                 11    12    16    14        -138.21330    0.00001
  142 Torsion                 11    12    16    15         -12.69184    0.00001
  143 Torsion                 12     4     8    16         -15.64385    0.00001
  144 Torsion                 12    10    14    13        -125.52147    0.00001
  145 Torsion                 12    10    14    16           0.00000    0.00000
  146 Torsion                 12    16    14    13         129.92654   -0.00001
  147 Torsion                 13    14    16    15           0.00000    0.00000
  148 Torsion                 14    10    12    16          -0.00000   -0.00000

 ==============================================================================
                                internuclear distances
 ------------------------------------------------------------------------------
       center one      |      center two      | atomic units |  angstroms
 ------------------------------------------------------------------------------
    2 C                |   1 H                |     2.08268  |     1.10210
    4 C                |   2 C                |     3.00872  |     1.59215
    4 C                |   3 H                |     2.08268  |     1.10210
    6 C                |   2 C                |     2.89297  |     1.53089
    6 C                |   5 H                |     2.06791  |     1.09429
    8 C                |   4 C                |     2.89297  |     1.53089
    8 C                |   7 H                |     2.06791  |     1.09429
   10 C                |   2 C                |     2.99501  |     1.58489
   10 C                |   9 H                |     2.07888  |     1.10009
   12 C                |   4 C                |     2.99501  |     1.58489
   12 C                |  10 C                |     2.95202  |     1.56214
   12 C                |  11 H                |     2.07888  |     1.10009
   14 C                |   6 C                |     2.89297  |     1.53089
   14 C                |  10 C                |     2.99501  |     1.58489
   14 C                |  13 H                |     2.08268  |     1.10210
   16 C                |   8 C                |     2.89297  |     1.53089
   16 C                |  12 C                |     2.99501  |     1.58489
   16 C                |  14 C                |     3.00872  |     1.59215
   16 C                |  15 H                |     2.08268  |     1.10210
 ------------------------------------------------------------------------------
                         number of included internuclear distances:         19
 ==============================================================================



 ==============================================================================
                                 internuclear angles
 ------------------------------------------------------------------------------
        center 1       |       center 2       |       center 3       |  degrees
 ------------------------------------------------------------------------------
    1 H                |   2 C                |   4 C                |   118.97
    1 H                |   2 C                |   6 C                |   122.11
    1 H                |   2 C                |  10 C                |   124.48
    4 C                |   2 C                |   6 C                |   105.61
    4 C                |   2 C                |  10 C                |    89.46
    6 C                |   2 C                |  10 C                |    88.52
    2 C                |   4 C                |   3 H                |   118.97
    2 C                |   4 C                |   8 C                |   105.61
    2 C                |   4 C                |  12 C                |    89.46
    3 H                |   4 C                |   8 C                |   122.11
    3 H                |   4 C                |  12 C                |   124.48
    8 C                |   4 C                |  12 C                |    88.52
    2 C                |   6 C                |   5 H                |   134.29
    2 C                |   6 C                |  14 C                |    91.35
    5 H                |   6 C                |  14 C                |   134.29
    4 C                |   8 C                |   7 H                |   134.29
    4 C                |   8 C                |  16 C                |    91.35
    7 H                |   8 C                |  16 C                |   134.29
    2 C                |  10 C                |   9 H                |   124.60
    2 C                |  10 C                |  12 C                |    90.54
    2 C                |  10 C                |  14 C                |    87.42
    9 H                |  10 C                |  12 C                |   127.47
    9 H                |  10 C                |  14 C                |   124.60
   12 C                |  10 C                |  14 C                |    90.54
    4 C                |  12 C                |  10 C                |    90.54
    4 C                |  12 C                |  11 H                |   124.60
    4 C                |  12 C                |  16 C                |    87.42
   10 C                |  12 C                |  11 H                |   127.47
   10 C                |  12 C                |  16 C                |    90.54
   11 H                |  12 C                |  16 C                |   124.60
    6 C                |  14 C                |  10 C                |    88.52
    6 C                |  14 C                |  13 H                |   122.11
    6 C                |  14 C                |  16 C                |   105.61
   10 C                |  14 C                |  13 H                |   124.48
   10 C                |  14 C                |  16 C                |    89.46
   13 H                |  14 C                |  16 C                |   118.97
    8 C                |  16 C                |  12 C                |    88.52
    8 C                |  16 C                |  14 C                |   105.61
    8 C                |  16 C                |  15 H                |   122.11
   12 C                |  16 C                |  14 C                |    89.46
   12 C                |  16 C                |  15 H                |   124.48
   14 C                |  16 C                |  15 H                |   118.97
 ------------------------------------------------------------------------------
                            number of included internuclear angles:         42
 ==============================================================================




 Task  times  cpu:   144698.2s     wall:    89376.6s
 Summary of allocated global arrays
-----------------------------------
  No active global arrays



                         GA Statistics for process    0
                         ------------------------------

       create   destroy   get      put      acc     scatter   gather  read&inc
calls: 5.17e+05 5.17e+05 2.05e+06 1.11e+06 1.83e+06    0        0     1.55e+09 
number of processes/call 1.00e+00 1.00e+00 1.00e+00 0.00e+00 0.00e+00
bytes total:             5.63e+09 2.65e+09 1.90e+09 0.00e+00 0.00e+00 1.24e+10
bytes remote:            0.00e+00 0.00e+00 0.00e+00 0.00e+00 0.00e+00 0.00e+00
Max memory consumed for GA by this process: 3142144 bytes
MA_summarize_allocated_blocks: starting scan ...
MA_summarize_allocated_blocks: scan completed: 0 heap blocks, 0 stack blocks
MA usage statistics:

	allocation statistics:
					      heap	     stack
					      ----	     -----
	current number of blocks	         0	         0
	maximum number of blocks	        19	        75
	current total bytes		         0	         0
	maximum total bytes		     80104	 119891080
	maximum total K-bytes		        81	    119892
	maximum total M-bytes		         1	       120


                                NWChem Input Module
                                -------------------





                                     CITATION
                                     --------
                Please cite the following reference when publishing
                           results obtained with NWChem:

                 M. Valiev, E.J. Bylaska, N. Govind, K. Kowalski,
              T.P. Straatsma, H.J.J. van Dam, D. Wang, J. Nieplocha,
                        E. Apra, T.L. Windus, W.A. de Jong
                 "NWChem: a comprehensive and scalable open-source
                  solution for large scale molecular simulations"
                      Comput. Phys. Commun. 181, 1477 (2010)
                           doi:10.1016/j.cpc.2010.04.018

                                      AUTHORS
                                      -------
          E. Apra, E. J. Bylaska, W. A. de Jong, N. Govind, K. Kowalski,
       T. P. Straatsma, M. Valiev, H. J. J. van Dam, D. Wang, T. L. Windus,
        J. Hammond, J. Autschbach, K. Bhaskaran-Nair, J. Brabec, K. Lopata,
       S. A. Fischer, S. Krishnamoorthy, W. Ma, M. Klemm, O. Villa, Y. Chen,
    V. Anisimov, F. Aquino, S. Hirata, M. T. Hackler, T. Risthaus, M. Malagoli,
       A. Marenich, A. Otero-de-la-Roza, J. Mullin, P. Nichols, R. Peverati,
     J. Pittner, Y. Zhao, P.-D. Fan, A. Fonari, M. Williamson, R. J. Harrison,
       J. R. Rehr, M. Dupuis, D. Silverstein, D. M. A. Smith, J. Nieplocha,
        V. Tipparaju, M. Krishnan, B. E. Van Kuiken, A. Vazquez-Mayagoitia,
        L. Jensen, M. Swart, Q. Wu, T. Van Voorhis, A. A. Auer, M. Nooijen,
      L. D. Crosby, E. Brown, G. Cisneros, G. I. Fann, H. Fruchtl, J. Garza,
        K. Hirao, R. A. Kendall, J. A. Nichols, K. Tsemekhman, K. Wolinski,
     J. Anchell, D. E. Bernholdt, P. Borowski, T. Clark, D. Clerc, H. Dachsel,
   M. J. O. Deegan, K. Dyall, D. Elwood, E. Glendening, M. Gutowski, A. C. Hess,
         J. Jaffe, B. G. Johnson, J. Ju, R. Kobayashi, R. Kutteh, Z. Lin,
   R. Littlefield, X. Long, B. Meng, T. Nakajima, S. Niu, L. Pollack, M. Rosing,
   K. Glaesemann, G. Sandrone, M. Stave, H. Taylor, G. Thomas, J. H. van Lenthe,
                               A. T. Wong, Z. Zhang.

 Total times  cpu:   144698.2s     wall:    89376.7s
