 argument  1 = cubane.nw
                                         
                                         


              Northwest Computational Chemistry Package (NWChem) 6.5
              ------------------------------------------------------


                    Environmental Molecular Sciences Laboratory
                       Pacific Northwest National Laboratory
                                Richland, WA 99352

                              Copyright (c) 1994-2013
                       Pacific Northwest National Laboratory
                            Battelle Memorial Institute

             NWChem is an open-source computational chemistry package
                        distributed under the terms of the
                      Educational Community License (ECL) 2.0
             A copy of the license is included with this distribution
                              in the LICENSE.TXT file

                                  ACKNOWLEDGMENT
                                  --------------

            This software and its documentation were developed at the
            EMSL at Pacific Northwest National Laboratory, a multiprogram
            national laboratory, operated for the U.S. Department of Energy
            by Battelle under Contract Number DE-AC05-76RL01830. Support
            for this work was provided by the Department of Energy Office
            of Biological and Environmental Research, Office of Basic
            Energy Sciences, and the Office of Advanced Scientific Computing.


           Job information
           ---------------

    hostname        = ts1456
    program         = nwchem
    date            = Thu Dec  4 08:22:59 2014

    compiled        = Sat_Nov_15_08:49:44_2014
    source          = /home/user/Nwchem-dev.revision26353-src.2014-10-22
    nwchem branch   = Development
    nwchem revision = 26353
    ga revision     = 10508
    input           = cubane.nw
    prefix          = cubane.
    data base       = ./cubane.db
    status          = startup
    nproc           =        1
    time left       =     -1s



           Memory information
           ------------------

    heap     =   13107200 doubles =    100.0 Mbytes
    stack    =   13107197 doubles =    100.0 Mbytes
    global   = 1441792000 doubles =  11000.0 Mbytes (distinct from heap & stack)
    total    = 1468006397 doubles =  11200.0 Mbytes
    verify   = yes
    hardfail = no 


           Directory information
           ---------------------

  0 permanent = .
  0 scratch   = /mnt/scratch




                                NWChem Input Module
                                -------------------


                       cubane MK-CCSD(2,2)/cc-pVDZ optimize
                       ------------------------------------

 Scaling coordinates for geometry "geometry" by  1.889725989
 (inverse scale =  0.529177249)

 Turning off AUTOSYM since
 SYMMETRY directive was detected!


          ------
          auto-z
          ------


                             Geometry "geometry" -> ""
                             -------------------------

 Output coordinates in angstroms (scale by  1.889725989 to convert to a.u.)

  No.       Tag          Charge          X              Y              Z
 ---- ---------------- ---------- -------------- -------------- --------------
    1 H                    1.0000     2.05734089    -1.32981048     0.02496916
    2 C                    6.0000     1.09520944    -0.79607098    -0.03872812
    3 H                    1.0000     2.05734089     1.32981048     0.02496916
    4 C                    6.0000     1.09520944     0.79607098    -0.03872812
    5 H                    1.0000     0.00000000    -1.59258759    -2.05035264
    6 C                    6.0000     0.00000000    -1.20794284    -1.02589597
    7 H                    1.0000     0.00000000     1.59258759    -2.05035264
    8 C                    6.0000     0.00000000     1.20794284    -1.02589597
    9 H                    1.0000     0.00000000    -1.45028613     1.97989350
   10 C                    6.0000     0.00000000    -0.78106894     1.10677233
   11 H                    1.0000     0.00000000     1.45028613     1.97989350
   12 C                    6.0000     0.00000000     0.78106894     1.10677233
   13 H                    1.0000    -2.05734089    -1.32981048     0.02496916
   14 C                    6.0000    -1.09520944    -0.79607098    -0.03872812
   15 H                    1.0000    -2.05734089     1.32981048     0.02496916
   16 C                    6.0000    -1.09520944     0.79607098    -0.03872812

      Atomic Mass 
      ----------- 

      H                  1.007825
      C                 12.000000


 Effective nuclear repulsion energy (a.u.)     357.6012016653

            Nuclear Dipole moment (a.u.) 
            ----------------------------
        X                 Y               Z
 ---------------- ---------------- ----------------
    -0.0000000000     0.0000000000    -0.0000000000

      Symmetry information
      --------------------

 Group name             C2v       
 Group number             16
 Group order               4
 No. of unique centers     6

      Symmetry unique atoms

     1    2    5    6    9   10



                                Z-matrix (autoz)
                                -------- 

 Units are Angstrom for bonds and degrees for angles

      Type          Name      I     J     K     L     M      Value
      ----------- --------  ----- ----- ----- ----- ----- ----------
    1 Stretch                  1     2                       1.10210
    2 Stretch                  2     4                       1.59214
    3 Stretch                  2     6                       1.53089
    4 Stretch                  2    10                       1.58489
    5 Stretch                  3     4                       1.10210
    6 Stretch                  4     8                       1.53089
    7 Stretch                  4    12                       1.58489
    8 Stretch                  5     6                       1.09429
    9 Stretch                  6    14                       1.53089
   10 Stretch                  7     8                       1.09429
   11 Stretch                  8    16                       1.53089
   12 Stretch                  9    10                       1.10009
   13 Stretch                 10    12                       1.56214
   14 Stretch                 10    14                       1.58489
   15 Stretch                 11    12                       1.10009
   16 Stretch                 12    16                       1.58489
   17 Stretch                 13    14                       1.10210
   18 Stretch                 14    16                       1.59214
   19 Stretch                 15    16                       1.10210
   20 Bend                     1     2     4               118.96607
   21 Bend                     1     2     6               122.10834
   22 Bend                     1     2    10               124.47722
   23 Bend                     2     4     3               118.96607
   24 Bend                     2     4     8               105.60720
   25 Bend                     2     4    12                89.45765
   26 Bend                     2     6     5               134.28698
   27 Bend                     2     6    14                91.35317
   28 Bend                     2    10     9               124.60299
   29 Bend                     2    10    12                90.54235
   30 Bend                     2    10    14                87.42360
   31 Bend                     3     4     8               122.10834
   32 Bend                     3     4    12               124.47722
   33 Bend                     4     2     6               105.60720
   34 Bend                     4     2    10                89.45765
   35 Bend                     4     8     7               134.28698
   36 Bend                     4     8    16                91.35317
   37 Bend                     4    12    10                90.54235
   38 Bend                     4    12    11               124.60299
   39 Bend                     4    12    16                87.42360
   40 Bend                     5     6    14               134.28698
   41 Bend                     6     2    10                88.52384
   42 Bend                     6    14    10                88.52384
   43 Bend                     6    14    13               122.10834
   44 Bend                     6    14    16               105.60720
   45 Bend                     7     8    16               134.28698
   46 Bend                     8     4    12                88.52384
   47 Bend                     8    16    12                88.52384
   48 Bend                     8    16    14               105.60720
   49 Bend                     8    16    15               122.10834
   50 Bend                     9    10    12               127.46892
   51 Bend                     9    10    14               124.60299
   52 Bend                    10    12    11               127.46892
   53 Bend                    10    12    16                90.54235
   54 Bend                    10    14    13               124.47722
   55 Bend                    10    14    16                89.45765
   56 Bend                    11    12    16               124.60299
   57 Bend                    12    10    14                90.54235
   58 Bend                    12    16    14                89.45765
   59 Bend                    12    16    15               124.47722
   60 Bend                    13    14    16               118.96607
   61 Bend                    14    16    15               118.96607
   62 Torsion                  1     2     4     3           0.00000
   63 Torsion                  1     2     4     8         141.75776
   64 Torsion                  1     2     4    12        -129.92655
   65 Torsion                  1     2     6     5         -36.52645
   66 Torsion                  1     2     6    14         146.36287
   67 Torsion                  1     2    10     9         -12.69184
   68 Torsion                  1     2    10    12         125.52148
   69 Torsion                  1     2    10    14        -143.96001
   70 Torsion                  2     4     8     7        -103.73033
   71 Torsion                  2     4     8    16          73.38035
   72 Torsion                  2     4    12    10          -0.00000
   73 Torsion                  2     4    12    11         138.21332
   74 Torsion                  2     4    12    16         -90.51852
   75 Torsion                  2     6    14    10         -15.64387
   76 Torsion                  2     6    14    13        -146.36287
   77 Torsion                  2     6    14    16          73.38035
   78 Torsion                  2    10    12     4           0.00000
   79 Torsion                  2    10    12    11        -136.28574
   80 Torsion                  2    10    12    16          87.42851
   81 Torsion                  2    10    14     6          15.10923
   82 Torsion                  2    10    14    13         143.96001
   83 Torsion                  2    10    14    16         -90.51852
   84 Torsion                  3     4     2     6        -141.75776
   85 Torsion                  3     4     2    10         129.92655
   86 Torsion                  3     4     8     7          36.52645
   87 Torsion                  3     4     8    16        -146.36287
   88 Torsion                  3     4    12    10        -125.52148
   89 Torsion                  3     4    12    11          12.69184
   90 Torsion                  3     4    12    16         143.96001
   91 Torsion                  4     2     6     5         103.73033
   92 Torsion                  4     2     6    14         -73.38035
   93 Torsion                  4     2    10     9        -138.21332
   94 Torsion                  4     2    10    12           0.00000
   95 Torsion                  4     2    10    14          90.51852
   96 Torsion                  4     8    16    12          15.64387
   97 Torsion                  4     8    16    14         -73.38035
   98 Torsion                  4     8    16    15         146.36287
   99 Torsion                  4    12    10     9         136.28574
  100 Torsion                  4    12    10    14         -87.42851
  101 Torsion                  4    12    16     8         -15.10923
  102 Torsion                  4    12    16    14          90.51852
  103 Torsion                  4    12    16    15        -143.96001
  104 Torsion                  5     6     2    10        -167.24545
  105 Torsion                  5     6    14    10         167.24545
  106 Torsion                  5     6    14    13          36.52645
  107 Torsion                  5     6    14    16        -103.73033
  108 Torsion                  6     2     4     8          -0.00000
  109 Torsion                  6     2     4    12          88.31569
  110 Torsion                  6     2    10     9         116.15893
  111 Torsion                  6     2    10    12        -105.62775
  112 Torsion                  6     2    10    14         -15.10923
  113 Torsion                  6    14    10     9        -116.15893
  114 Torsion                  6    14    10    12         105.62775
  115 Torsion                  6    14    16     8           0.00000
  116 Torsion                  6    14    16    12         -88.31569
  117 Torsion                  6    14    16    15         141.75776
  118 Torsion                  7     8     4    12         167.24545
  119 Torsion                  7     8    16    12        -167.24545
  120 Torsion                  7     8    16    14         103.73033
  121 Torsion                  7     8    16    15         -36.52645
  122 Torsion                  8     4     2    10         -88.31569
  123 Torsion                  8     4    12    10         105.62775
  124 Torsion                  8     4    12    11        -116.15893
  125 Torsion                  8     4    12    16          15.10923
  126 Torsion                  8    16    12    10        -105.62775
  127 Torsion                  8    16    12    11         116.15893
  128 Torsion                  8    16    14    10          88.31569
  129 Torsion                  8    16    14    13        -141.75776
  130 Torsion                  9    10    12    11           0.00000
  131 Torsion                  9    10    12    16        -136.28574
  132 Torsion                  9    10    14    13          12.69184
  133 Torsion                  9    10    14    16         138.21332
  134 Torsion                 10     2     4    12           0.00000
  135 Torsion                 10     2     6    14          15.64387
  136 Torsion                 10    12    16    14          -0.00000
  137 Torsion                 10    12    16    15         125.52148
  138 Torsion                 10    14    16    12          -0.00000
  139 Torsion                 10    14    16    15        -129.92655
  140 Torsion                 11    12    10    14         136.28574
  141 Torsion                 11    12    16    14        -138.21332
  142 Torsion                 11    12    16    15         -12.69184
  143 Torsion                 12     4     8    16         -15.64387
  144 Torsion                 12    10    14    13        -125.52148
  145 Torsion                 12    10    14    16           0.00000
  146 Torsion                 12    16    14    13         129.92655
  147 Torsion                 13    14    16    15          -0.00000
  148 Torsion                 14    10    12    16          -0.00000


            XYZ format geometry
            -------------------
    16
 geometry
 H                     2.05734089    -1.32981048     0.02496916
 C                     1.09520944    -0.79607098    -0.03872812
 H                     2.05734089     1.32981048     0.02496916
 C                     1.09520944     0.79607098    -0.03872812
 H                     0.00000000    -1.59258759    -2.05035264
 C                     0.00000000    -1.20794284    -1.02589597
 H                     0.00000000     1.59258759    -2.05035264
 C                     0.00000000     1.20794284    -1.02589597
 H                     0.00000000    -1.45028613     1.97989350
 C                     0.00000000    -0.78106894     1.10677233
 H                     0.00000000     1.45028613     1.97989350
 C                     0.00000000     0.78106894     1.10677233
 H                    -2.05734089    -1.32981048     0.02496916
 C                    -1.09520944    -0.79607098    -0.03872812
 H                    -2.05734089     1.32981048     0.02496916
 C                    -1.09520944     0.79607098    -0.03872812

 ==============================================================================
                                internuclear distances
 ------------------------------------------------------------------------------
       center one      |      center two      | atomic units |  angstroms
 ------------------------------------------------------------------------------
    2 C                |   1 H                |     2.08267  |     1.10210
    4 C                |   2 C                |     3.00871  |     1.59214
    4 C                |   3 H                |     2.08267  |     1.10210
    6 C                |   2 C                |     2.89296  |     1.53089
    6 C                |   5 H                |     2.06790  |     1.09429
    8 C                |   4 C                |     2.89296  |     1.53089
    8 C                |   7 H                |     2.06790  |     1.09429
   10 C                |   2 C                |     2.99501  |     1.58489
   10 C                |   9 H                |     2.07886  |     1.10009
   12 C                |   4 C                |     2.99501  |     1.58489
   12 C                |  10 C                |     2.95201  |     1.56214
   12 C                |  11 H                |     2.07886  |     1.10009
   14 C                |   6 C                |     2.89296  |     1.53089
   14 C                |  10 C                |     2.99501  |     1.58489
   14 C                |  13 H                |     2.08267  |     1.10210
   16 C                |   8 C                |     2.89296  |     1.53089
   16 C                |  12 C                |     2.99501  |     1.58489
   16 C                |  14 C                |     3.00871  |     1.59214
   16 C                |  15 H                |     2.08267  |     1.10210
 ------------------------------------------------------------------------------
                         number of included internuclear distances:         19
 ==============================================================================



 ==============================================================================
                                 internuclear angles
 ------------------------------------------------------------------------------
        center 1       |       center 2       |       center 3       |  degrees
 ------------------------------------------------------------------------------
    1 H                |   2 C                |   4 C                |   118.97
    1 H                |   2 C                |   6 C                |   122.11
    1 H                |   2 C                |  10 C                |   124.48
    4 C                |   2 C                |   6 C                |   105.61
    4 C                |   2 C                |  10 C                |    89.46
    6 C                |   2 C                |  10 C                |    88.52
    2 C                |   4 C                |   3 H                |   118.97
    2 C                |   4 C                |   8 C                |   105.61
    2 C                |   4 C                |  12 C                |    89.46
    3 H                |   4 C                |   8 C                |   122.11
    3 H                |   4 C                |  12 C                |   124.48
    8 C                |   4 C                |  12 C                |    88.52
    2 C                |   6 C                |   5 H                |   134.29
    2 C                |   6 C                |  14 C                |    91.35
    5 H                |   6 C                |  14 C                |   134.29
    4 C                |   8 C                |   7 H                |   134.29
    4 C                |   8 C                |  16 C                |    91.35
    7 H                |   8 C                |  16 C                |   134.29
    2 C                |  10 C                |   9 H                |   124.60
    2 C                |  10 C                |  12 C                |    90.54
    2 C                |  10 C                |  14 C                |    87.42
    9 H                |  10 C                |  12 C                |   127.47
    9 H                |  10 C                |  14 C                |   124.60
   12 C                |  10 C                |  14 C                |    90.54
    4 C                |  12 C                |  10 C                |    90.54
    4 C                |  12 C                |  11 H                |   124.60
    4 C                |  12 C                |  16 C                |    87.42
   10 C                |  12 C                |  11 H                |   127.47
   10 C                |  12 C                |  16 C                |    90.54
   11 H                |  12 C                |  16 C                |   124.60
    6 C                |  14 C                |  10 C                |    88.52
    6 C                |  14 C                |  13 H                |   122.11
    6 C                |  14 C                |  16 C                |   105.61
   10 C                |  14 C                |  13 H                |   124.48
   10 C                |  14 C                |  16 C                |    89.46
   13 H                |  14 C                |  16 C                |   118.97
    8 C                |  16 C                |  12 C                |    88.52
    8 C                |  16 C                |  14 C                |   105.61
    8 C                |  16 C                |  15 H                |   122.11
   12 C                |  16 C                |  14 C                |    89.46
   12 C                |  16 C                |  15 H                |   124.48
   14 C                |  16 C                |  15 H                |   118.97
 ------------------------------------------------------------------------------
                            number of included internuclear angles:         42
 ==============================================================================



  library name resolved from: environment
  library file name is: </home/user/Nwchem-dev.revision26353-src.2014-10-22/src/basis/libraries/>
  
                      Basis "ao basis" -> "" (spherical)
                      -----
  H (Hydrogen)
  ------------
            Exponent  Coefficients 
       -------------- ---------------------------------------------------------
  1 S  1.30100000E+01  0.019685
  1 S  1.96200000E+00  0.137977
  1 S  4.44600000E-01  0.478148

  2 S  1.22000000E-01  1.000000

  3 P  7.27000000E-01  1.000000

  C (Carbon)
  ----------
            Exponent  Coefficients 
       -------------- ---------------------------------------------------------
  1 S  6.66500000E+03  0.000692
  1 S  1.00000000E+03  0.005329
  1 S  2.28000000E+02  0.027077
  1 S  6.47100000E+01  0.101718
  1 S  2.10600000E+01  0.274740
  1 S  7.49500000E+00  0.448564
  1 S  2.79700000E+00  0.285074
  1 S  5.21500000E-01  0.015204

  2 S  6.66500000E+03 -0.000146
  2 S  1.00000000E+03 -0.001154
  2 S  2.28000000E+02 -0.005725
  2 S  6.47100000E+01 -0.023312
  2 S  2.10600000E+01 -0.063955
  2 S  7.49500000E+00 -0.149981
  2 S  2.79700000E+00 -0.127262
  2 S  5.21500000E-01  0.544529

  3 S  1.59600000E-01  1.000000

  4 P  9.43900000E+00  0.038109
  4 P  2.00200000E+00  0.209480
  4 P  5.45600000E-01  0.508557

  5 P  1.51700000E-01  1.000000

  6 D  5.50000000E-01  1.000000



 Summary of "ao basis" -> "" (spherical)
 ------------------------------------------------------------------------------
       Tag                 Description            Shells   Functions and Types
 ---------------- ------------------------------  ------  ---------------------
 H                          cc-pVDZ                  3        5   2s1p
 C                          cc-pVDZ                  6       14   3s2p1d


Entering MRCC input module

  Reference   1 :22222222222222222222222222220                     
  Reference   2 :22222222222222222222222222202                     
 roottooverlap                    0


                           NWChem Geometry Optimization
                           ----------------------------




                       cubane MK-CCSD(2,2)/cc-pVDZ optimize


 maximum gradient threshold         (gmax) =   0.000015
 rms gradient threshold             (grms) =   0.000010
 maximum cartesian step threshold   (xmax) =   0.000060
 rms cartesian step threshold       (xrms) =   0.000040
 fixed trust radius                (trust) =   0.100000
 maximum step size to saddle      (sadstp) =   0.100000
 energy precision                  (eprec) =   1.0D-07
 maximum number of steps          (nptopt) =   20
 initial hessian option           (inhess) =    2
 line search option               (linopt) =    0
 hessian update option            (modupd) =    2
 saddle point option              (modsad) =    1
 initial eigen-mode to follow     (moddir) =    0
 initial variable to follow       (vardir) =    0
 follow first negative mode     (firstneg) =    T
 apply conjugacy                    (opcg) =    F
 source of zmatrix                         =   autoz   


          -----------------------
          Transition State Search
          -----------------------


 Names of Z-matrix variables 
    1              2              3              4              5         
    6              7              8              9             10         
   11             12             13             14             15         
   16             17             18             19             20         
   21             22             23             24             25         
   26             27             28             29             30         
   31             32             33             34             35         
   36             37             38             39             40         
   41             42             43             44             45         
   46             47             48             49             50         
   51             52             53             54             55         
   56             57             58             59             60         
   61             62             63             64             65         
   66             67             68             69             70         
   71             72             73             74             75         
   76             77             78             79             80         
   81             82             83             84             85         
   86             87             88             89             90         
   91             92             93             94             95         
   96             97             98             99            100         
  101            102            103            104            105         
  106            107            108            109            110         
  111            112            113            114            115         
  116            117            118            119            120         
  121            122            123            124            125         
  126            127            128            129            130         
  131            132            133            134            135         
  136            137            138            139            140         
  141            142            143            144            145         
  146            147            148         

 Variables with the same non-blank name are constrained to be equal


  Using Cartesian Hessian from previous frequency calculation

          --------
          Step   0
          --------


                         Geometry "geometry" -> "geometry"
                         ---------------------------------

 Output coordinates in angstroms (scale by  1.889725989 to convert to a.u.)

  No.       Tag          Charge          X              Y              Z
 ---- ---------------- ---------- -------------- -------------- --------------
    1 H                    1.0000     2.05734089    -1.32981048     0.02496916
    2 C                    6.0000     1.09520944    -0.79607098    -0.03872812
    3 H                    1.0000     2.05734089     1.32981048     0.02496916
    4 C                    6.0000     1.09520944     0.79607098    -0.03872812
    5 H                    1.0000     0.00000000    -1.59258759    -2.05035264
    6 C                    6.0000     0.00000000    -1.20794284    -1.02589597
    7 H                    1.0000     0.00000000     1.59258759    -2.05035264
    8 C                    6.0000     0.00000000     1.20794284    -1.02589597
    9 H                    1.0000     0.00000000    -1.45028613     1.97989350
   10 C                    6.0000     0.00000000    -0.78106894     1.10677233
   11 H                    1.0000     0.00000000     1.45028613     1.97989350
   12 C                    6.0000     0.00000000     0.78106894     1.10677233
   13 H                    1.0000    -2.05734089    -1.32981048     0.02496916
   14 C                    6.0000    -1.09520944    -0.79607098    -0.03872812
   15 H                    1.0000    -2.05734089     1.32981048     0.02496916
   16 C                    6.0000    -1.09520944     0.79607098    -0.03872812

      Atomic Mass 
      ----------- 

      H                  1.007825
      C                 12.000000


 Effective nuclear repulsion energy (a.u.)     357.6012016653

            Nuclear Dipole moment (a.u.) 
            ----------------------------
        X                 Y               Z
 ---------------- ---------------- ----------------
    -0.0000000000     0.0000000000    -0.0000000000

      Symmetry information
      --------------------

 Group name             C2v       
 Group number             16
 Group order               4
 No. of unique centers     6

      Symmetry unique atoms

     1    2    5    6    9   10

                         NWChem Numerical Gradients Module
                         ---------------------------------


 No. of totally-symmetric internal modes =  13

 usesamefock_it F
 ignorecomplex F
 savet F
 se4t F
 no_aposteriori F
 Using fermivacuum by default
 Using rootfromoverlap  F
 standard version of CCSD is used
 All integrlas stored in memory
 BYTES BYTES                    8
                                 NWChem SCF Module
                                 -----------------


                       cubane MK-CCSD(2,2)/cc-pVDZ optimize



  ao basis        = "ao basis"
  functions       =   152
  atoms           =    16
  closed shells   =    28
  open shells     =     0
  charge          =   0.00
  wavefunction    = RHF 
  input vectors   = atomic
  output vectors  = ./cubane.movecs
  use symmetry    = T
  symmetry adapt  = T


 Summary of "ao basis" -> "ao basis" (spherical)
 ------------------------------------------------------------------------------
       Tag                 Description            Shells   Functions and Types
 ---------------- ------------------------------  ------  ---------------------
 H                          cc-pVDZ                  3        5   2s1p
 C                          cc-pVDZ                  6       14   3s2p1d


      Symmetry analysis of basis
      --------------------------

        a1         47
        a2         29
        b1         29
        b2         47


 Forming initial guess at       0.2s


      Superposition of Atomic Density Guess
      -------------------------------------

 Sum of atomic energies:        -305.32340088

      Non-variational initial energy
      ------------------------------

 Total energy =    -311.101895
 1-e energy   =   -1118.625466
 2-e energy   =     449.922369
 HOMO         =      -0.131060
 LUMO         =      -0.114930


      Symmetry analysis of molecular orbitals - initial
      -------------------------------------------------

  Numbering of irreducible representations: 

     1 a1          2 a2          3 b1          4 b2      

  Orbital symmetries:

     1 a1          2 b1          3 b2          4 a2          5 a1      
     6 b2          7 a1          8 b2          9 a1         10 b2      
    11 b1         12 a1         13 b2         14 a2         15 a1      
    16 a1         17 b2         18 a1         19 b2         20 b1      
    21 a1         22 b1         23 b1         24 a2         25 a1      
    26 b2         27 a2         28 a1         29 b2         30 a1      
    31 b1         32 a1         33 b2         34 a1         35 a2      
    36 b2         37 b1         38 b2      


 Starting SCF solution at       1.1s



 ----------------------------------------------
         Quadratically convergent ROHF

 Convergence threshold     :          1.000E-04
 Maximum no. of iterations :           30
 Final Fock-matrix accuracy:          1.000E-07
 ----------------------------------------------


              iter       energy          gnorm     gmax       time
             ----- ------------------- --------- --------- --------
                 1     -307.1866645598  9.04D-01  2.08D-01      3.8
                 2     -307.2704743845  1.48D-01  3.30D-02      9.1
                 3     -307.2722416120  1.04D-02  2.83D-03     16.6
                 4     -307.2722656133  6.67D-05  1.88D-05     31.9


       Final RHF  results 
       ------------------ 

         Total SCF energy =   -307.272265613289
      One-electron energy =  -1123.940246086185
      Two-electron energy =    459.066778807612
 Nuclear repulsion energy =    357.601201665284

        Time for solution =     30.7s



       Symmetry analysis of molecular orbitals - final
       -----------------------------------------------

  Numbering of irreducible representations: 

     1 a1          2 a2          3 b1          4 b2      

  Orbital symmetries:

     1 a1          2 b2          3 a1          4 b1          5 a2      
     6 b2          7 a1          8 b2          9 a1         10 b2      
    11 b1         12 a1         13 b2         14 a2         15 a1      
    16 a1         17 b2         18 a1         19 b2         20 b1      
    21 b1         22 a1         23 a2         24 b1         25 b2      
    26 a1         27 a2         28 a1         29 b2         30 a1      
    31 a1         32 b1         33 b2         34 a1         35 b2      
    36 a2         37 b2         38 a1      

             Final eigenvalues
             -----------------

              1      
    1  -11.2576
    2  -11.2575
    3  -11.2405
    4  -11.2405
    5  -11.2400
    6  -11.2400
    7  -11.2313
    8  -11.2308
    9   -1.2211
   10   -1.0242
   11   -0.9683
   12   -0.9349
   13   -0.7871
   14   -0.7845
   15   -0.7568
   16   -0.7004
   17   -0.6514
   18   -0.6079
   19   -0.6060
   20   -0.5749
   21   -0.5378
   22   -0.5292
   23   -0.4432
   24   -0.4313
   25   -0.4122
   26   -0.4047
   27   -0.3815
   28   -0.2078
   29    0.0502
   30    0.1864
   31    0.2036
   32    0.2103
   33    0.2309
   34    0.2437
   35    0.2533
   36    0.2547
   37    0.2654
   38    0.2690

                       ROHF Final Molecular Orbital Analysis
                       -------------------------------------

 Vector    9  Occ=2.000000D+00  E=-1.221139D+00  Symmetry=a1
              MO Center=  3.5D-16, -2.6D-16,  1.5D-01, r^2= 1.8D+00
   Bfn.  Coefficient  Atom+Function         Bfn.  Coefficient  Atom+Function  
  ----- ------------  ---------------      ----- ------------  ---------------
    83      0.152424  10 C  s               102      0.152424  12 C  s         

 Vector   10  Occ=2.000000D+00  E=-1.024215D+00  Symmetry=b2
              MO Center=  6.3D-17,  1.2D-16, -1.4D-01, r^2= 2.6D+00
   Bfn.  Coefficient  Atom+Function         Bfn.  Coefficient  Atom+Function  
  ----- ------------  ---------------      ----- ------------  ---------------
    45      0.179815   6 C  s                64     -0.179815   8 C  s         

 Vector   11  Occ=2.000000D+00  E=-9.683057D-01  Symmetry=b1
              MO Center=  1.2D-15, -3.8D-16,  7.6D-03, r^2= 2.8D+00
   Bfn.  Coefficient  Atom+Function         Bfn.  Coefficient  Atom+Function  
  ----- ------------  ---------------      ----- ------------  ---------------
     7      0.199221   2 C  s                26      0.199221   4 C  s         
   121     -0.199221  14 C  s               140     -0.199221  16 C  s         
     8      0.171074   2 C  s                27      0.171074   4 C  s         
   122     -0.171074  14 C  s               141     -0.171074  16 C  s         

 Vector   12  Occ=2.000000D+00  E=-9.349009D-01  Symmetry=a1
              MO Center= -6.0D-18,  5.3D-17,  9.1D-02, r^2= 3.0D+00
   Bfn.  Coefficient  Atom+Function         Bfn.  Coefficient  Atom+Function  
  ----- ------------  ---------------      ----- ------------  ---------------
    83     -0.194910  10 C  s               102     -0.194910  12 C  s         
    45      0.184054   6 C  s                64      0.184054   8 C  s         
    84     -0.183876  10 C  s               103     -0.183876  12 C  s         
    46      0.172465   6 C  s                65      0.172465   8 C  s         

 Vector   13  Occ=2.000000D+00  E=-7.871458D-01  Symmetry=b2
              MO Center= -1.8D-15,  1.7D-15, -3.6D-03, r^2= 4.3D+00
   Bfn.  Coefficient  Atom+Function         Bfn.  Coefficient  Atom+Function  
  ----- ------------  ---------------      ----- ------------  ---------------
    84      0.229870  10 C  s               103     -0.229870  12 C  s         
    46     -0.192998   6 C  s                65      0.192998   8 C  s         
    45     -0.187446   6 C  s                64      0.187446   8 C  s         
    83      0.179386  10 C  s               102     -0.179386  12 C  s         
    39     -0.156384   5 H  s                58      0.156384   7 H  s         

 Vector   14  Occ=2.000000D+00  E=-7.844536D-01  Symmetry=a2
              MO Center=  1.7D-15, -6.2D-16, -7.8D-02, r^2= 3.9D+00
   Bfn.  Coefficient  Atom+Function         Bfn.  Coefficient  Atom+Function  
  ----- ------------  ---------------      ----- ------------  ---------------
     8      0.205029   2 C  s                27     -0.205029   4 C  s         
   122     -0.205029  14 C  s               141      0.205029  16 C  s         
     7      0.177210   2 C  s                26     -0.177210   4 C  s         
   121     -0.177210  14 C  s               140      0.177210  16 C  s         

 Vector   15  Occ=2.000000D+00  E=-7.567515D-01  Symmetry=a1
              MO Center=  3.1D-15, -2.0D-15, -1.9D-01, r^2= 4.3D+00
   Bfn.  Coefficient  Atom+Function         Bfn.  Coefficient  Atom+Function  
  ----- ------------  ---------------      ----- ------------  ---------------
    46      0.184168   6 C  s                65      0.184168   8 C  s         

 Vector   16  Occ=2.000000D+00  E=-7.003593D-01  Symmetry=a1
              MO Center= -4.7D-17, -4.2D-17,  2.1D-01, r^2= 4.4D+00
   Bfn.  Coefficient  Atom+Function         Bfn.  Coefficient  Atom+Function  
  ----- ------------  ---------------      ----- ------------  ---------------
     9      0.144734   2 C  px               28      0.144734   4 C  px        
   123     -0.144734  14 C  px              142     -0.144734  16 C  px        
    77      0.143080   9 H  s                96      0.143080  11 H  s         
    87      0.142341  10 C  pz              106      0.142341  12 C  pz        
     1      0.138293   1 H  s                20      0.138293   3 H  s         

 Vector   17  Occ=2.000000D+00  E=-6.514418D-01  Symmetry=b2
              MO Center= -1.1D-15, -9.6D-15,  1.9D-02, r^2= 5.2D+00
   Bfn.  Coefficient  Atom+Function         Bfn.  Coefficient  Atom+Function  
  ----- ------------  ---------------      ----- ------------  ---------------
    77      0.184076   9 H  s                96     -0.184076  11 H  s         
    39      0.180111   5 H  s                58     -0.180111   7 H  s         

 Vector   18  Occ=2.000000D+00  E=-6.079144D-01  Symmetry=a1
              MO Center= -1.6D-16, -3.7D-15, -1.5D-01, r^2= 3.7D+00
   Bfn.  Coefficient  Atom+Function         Bfn.  Coefficient  Atom+Function  
  ----- ------------  ---------------      ----- ------------  ---------------
    86     -0.221931  10 C  py              105      0.221931  12 C  py        
    49      0.211490   6 C  pz               68      0.211490   8 C  pz        
    39     -0.172331   5 H  s                58     -0.172331   7 H  s         

 Vector   19  Occ=2.000000D+00  E=-6.059740D-01  Symmetry=b2
              MO Center= -3.6D-16,  3.3D-16, -1.1D-01, r^2= 4.5D+00
   Bfn.  Coefficient  Atom+Function         Bfn.  Coefficient  Atom+Function  
  ----- ------------  ---------------      ----- ------------  ---------------
     9      0.185422   2 C  px               28     -0.185422   4 C  px        
   123     -0.185422  14 C  px              142      0.185422  16 C  px        
     1      0.178571   1 H  s                20     -0.178571   3 H  s         
   115      0.178571  13 H  s               134     -0.178571  15 H  s         
    49     -0.156663   6 C  pz               68      0.156663   8 C  pz        

 Vector   20  Occ=2.000000D+00  E=-5.749409D-01  Symmetry=b1
              MO Center=  1.4D-16,  4.2D-16,  1.2D-01, r^2= 3.2D+00
   Bfn.  Coefficient  Atom+Function         Bfn.  Coefficient  Atom+Function  
  ----- ------------  ---------------      ----- ------------  ---------------
    85      0.200716  10 C  px              104      0.200716  12 C  px        
    11      0.153047   2 C  pz               30      0.153047   4 C  pz        
   125     -0.153047  14 C  pz              144     -0.153047  16 C  pz        

 Vector   21  Occ=2.000000D+00  E=-5.378013D-01  Symmetry=b1
              MO Center= -5.3D-16,  6.3D-16, -2.1D-01, r^2= 3.6D+00
   Bfn.  Coefficient  Atom+Function         Bfn.  Coefficient  Atom+Function  
  ----- ------------  ---------------      ----- ------------  ---------------
    47      0.202086   6 C  px               66      0.202086   8 C  px        
     1     -0.154602   1 H  s                 9     -0.154061   2 C  px        
    20     -0.154602   3 H  s                28     -0.154061   4 C  px        
   115      0.154602  13 H  s               123     -0.154061  14 C  px        
   134      0.154602  15 H  s               142     -0.154061  16 C  px        

 Vector   22  Occ=2.000000D+00  E=-5.292117D-01  Symmetry=a1
              MO Center= -6.1D-15, -7.7D-16,  2.4D-01, r^2= 3.5D+00
   Bfn.  Coefficient  Atom+Function         Bfn.  Coefficient  Atom+Function  
  ----- ------------  ---------------      ----- ------------  ---------------
    87      0.213393  10 C  pz              106      0.213393  12 C  pz        
    77      0.166941   9 H  s                96      0.166941  11 H  s         

 Vector   23  Occ=2.000000D+00  E=-4.432120D-01  Symmetry=a2
              MO Center=  9.3D-16, -1.1D-15, -4.1D-01, r^2= 3.4D+00
   Bfn.  Coefficient  Atom+Function         Bfn.  Coefficient  Atom+Function  
  ----- ------------  ---------------      ----- ------------  ---------------
    47      0.298388   6 C  px               66     -0.298388   8 C  px        
    11     -0.158434   2 C  pz               30      0.158434   4 C  pz        
   125      0.158434  14 C  pz              144     -0.158434  16 C  pz        
     9     -0.153811   2 C  px               28      0.153811   4 C  px        
   123     -0.153811  14 C  px              142      0.153811  16 C  px        

 Vector   24  Occ=2.000000D+00  E=-4.312661D-01  Symmetry=b1
              MO Center=  2.7D-15,  3.2D-15,  4.2D-02, r^2= 2.9D+00
   Bfn.  Coefficient  Atom+Function         Bfn.  Coefficient  Atom+Function  
  ----- ------------  ---------------      ----- ------------  ---------------
    10      0.236707   2 C  py               29     -0.236707   4 C  py        
   124     -0.236707  14 C  py              143      0.236707  16 C  py        
    85     -0.177465  10 C  px              104     -0.177465  12 C  px        
    47     -0.153310   6 C  px               66     -0.153310   8 C  px        

 Vector   25  Occ=2.000000D+00  E=-4.121777D-01  Symmetry=b2
              MO Center=  1.3D-15, -1.7D-13,  2.3D-01, r^2= 3.6D+00
   Bfn.  Coefficient  Atom+Function         Bfn.  Coefficient  Atom+Function  
  ----- ------------  ---------------      ----- ------------  ---------------
    87      0.251799  10 C  pz              106     -0.251799  12 C  pz        
    11     -0.186542   2 C  pz               30      0.186542   4 C  pz        
   125     -0.186542  14 C  pz              144      0.186542  16 C  pz        
    77      0.182862   9 H  s                96     -0.182862  11 H  s         
    49      0.178942   6 C  pz               68     -0.178942   8 C  pz        

 Vector   26  Occ=2.000000D+00  E=-4.046781D-01  Symmetry=a1
              MO Center=  3.6D-15,  1.7D-13,  5.2D-01, r^2= 3.0D+00
   Bfn.  Coefficient  Atom+Function         Bfn.  Coefficient  Atom+Function  
  ----- ------------  ---------------      ----- ------------  ---------------
    86      0.321709  10 C  py              105     -0.321709  12 C  py        
    89      0.204311  10 C  py              108     -0.204311  12 C  py        

 Vector   27  Occ=2.000000D+00  E=-3.815483D-01  Symmetry=a2
              MO Center= -4.1D-15, -4.5D-15,  4.7D-01, r^2= 3.0D+00
   Bfn.  Coefficient  Atom+Function         Bfn.  Coefficient  Atom+Function  
  ----- ------------  ---------------      ----- ------------  ---------------
    85      0.296112  10 C  px              104     -0.296112  12 C  px        
    88      0.195997  10 C  px              107     -0.195997  12 C  px        
     9     -0.166232   2 C  px               28      0.166232   4 C  px        
   123     -0.166232  14 C  px              142      0.166232  16 C  px        
    11      0.157445   2 C  pz               30     -0.157445   4 C  pz        

 Vector   28  Occ=2.000000D+00  E=-2.077888D-01  Symmetry=a1
              MO Center=  1.2D-15,  3.8D-15, -8.4D-01, r^2= 3.2D+00
   Bfn.  Coefficient  Atom+Function         Bfn.  Coefficient  Atom+Function  
  ----- ------------  ---------------      ----- ------------  ---------------
    51      0.398211   6 C  py               70     -0.398211   8 C  py        
    48      0.310762   6 C  py               67     -0.310762   8 C  py        

 Vector   29  Occ=0.000000D+00  E= 5.021573D-02  Symmetry=b2
              MO Center= -6.5D-17, -4.3D-18, -8.1D-01, r^2= 3.5D+00
   Bfn.  Coefficient  Atom+Function         Bfn.  Coefficient  Atom+Function  
  ----- ------------  ---------------      ----- ------------  ---------------
    51      0.486349   6 C  py               70      0.486349   8 C  py        
    48      0.329346   6 C  py               67      0.329346   8 C  py        
    84      0.281334  10 C  s               103     -0.281334  12 C  s         

 Vector   30  Occ=0.000000D+00  E= 1.864128D-01  Symmetry=a1
              MO Center=  8.6D-16, -7.6D-16,  3.5D-01, r^2= 1.0D+01
   Bfn.  Coefficient  Atom+Function         Bfn.  Coefficient  Atom+Function  
  ----- ------------  ---------------      ----- ------------  ---------------
    78      0.773077   9 H  s                97      0.773077  11 H  s         
     2      0.716072   1 H  s                21      0.716072   3 H  s         
   116      0.716072  13 H  s               135      0.716072  15 H  s         
    84     -0.563952  10 C  s               103     -0.563952  12 C  s         
     8     -0.553406   2 C  s                27     -0.553406   4 C  s         

 Vector   31  Occ=0.000000D+00  E= 2.035715D-01  Symmetry=a1
              MO Center= -7.8D-17,  9.6D-16, -5.7D-01, r^2= 8.2D+00
   Bfn.  Coefficient  Atom+Function         Bfn.  Coefficient  Atom+Function  
  ----- ------------  ---------------      ----- ------------  ---------------
    84      1.035909  10 C  s               103      1.035909  12 C  s         
    40      0.985803   5 H  s                59      0.985803   7 H  s         
    46     -0.956303   6 C  s                65     -0.956303   8 C  s         
    78     -0.555041   9 H  s                97     -0.555041  11 H  s         
    52      0.379427   6 C  pz               71      0.379427   8 C  pz        

 Vector   32  Occ=0.000000D+00  E= 2.102664D-01  Symmetry=b1
              MO Center=  2.7D-15, -1.6D-16,  1.2D-01, r^2= 8.7D+00
   Bfn.  Coefficient  Atom+Function         Bfn.  Coefficient  Atom+Function  
  ----- ------------  ---------------      ----- ------------  ---------------
     8      1.018177   2 C  s                27      1.018177   4 C  s         
   122     -1.018177  14 C  s               141     -1.018177  16 C  s         
     2     -0.854783   1 H  s                21     -0.854783   3 H  s         
   116      0.854783  13 H  s               135      0.854783  15 H  s         
    88     -0.388778  10 C  px              107     -0.388778  12 C  px        

 Vector   33  Occ=0.000000D+00  E= 2.309318D-01  Symmetry=b2
              MO Center= -3.2D-16, -4.9D-16,  6.9D-01, r^2= 1.1D+01
   Bfn.  Coefficient  Atom+Function         Bfn.  Coefficient  Atom+Function  
  ----- ------------  ---------------      ----- ------------  ---------------
    78      1.196177   9 H  s                97     -1.196177  11 H  s         
     2      0.681081   1 H  s                21     -0.681081   3 H  s         
    90     -0.682696  10 C  pz              109      0.682696  12 C  pz        
   116      0.681081  13 H  s               135     -0.681081  15 H  s         
     8     -0.647835   2 C  s                27      0.647835   4 C  s         

 Vector   34  Occ=0.000000D+00  E= 2.437403D-01  Symmetry=a1
              MO Center= -6.2D-15, -1.3D-15,  2.6D-03, r^2= 1.1D+01
   Bfn.  Coefficient  Atom+Function         Bfn.  Coefficient  Atom+Function  
  ----- ------------  ---------------      ----- ------------  ---------------
    40      0.996685   5 H  s                59      0.996685   7 H  s         
    78      0.950831   9 H  s                97      0.950831  11 H  s         
     2     -0.784371   1 H  s                21     -0.784371   3 H  s         
   116     -0.784371  13 H  s               135     -0.784371  15 H  s         
    52      0.675115   6 C  pz               71      0.675115   8 C  pz        

 Vector   35  Occ=0.000000D+00  E= 2.532925D-01  Symmetry=b2
              MO Center=  3.7D-15, -5.5D-16, -1.3D+00, r^2= 1.0D+01
   Bfn.  Coefficient  Atom+Function         Bfn.  Coefficient  Atom+Function  
  ----- ------------  ---------------      ----- ------------  ---------------
    40      1.579537   5 H  s                59     -1.579537   7 H  s         
    52      0.952588   6 C  pz               71     -0.952588   8 C  pz        
    78     -0.888441   9 H  s                97      0.888441  11 H  s         
    46     -0.752377   6 C  s                65      0.752377   8 C  s         
    84      0.549867  10 C  s               103     -0.549867  12 C  s         

 Vector   36  Occ=0.000000D+00  E= 2.547190D-01  Symmetry=a2
              MO Center= -2.3D-13,  2.1D-15,  4.9D-02, r^2= 1.1D+01
   Bfn.  Coefficient  Atom+Function         Bfn.  Coefficient  Atom+Function  
  ----- ------------  ---------------      ----- ------------  ---------------
     2      1.311443   1 H  s                21     -1.311443   3 H  s         
   116     -1.311443  13 H  s               135      1.311443  15 H  s         
    12     -0.831505   2 C  px               31      0.831505   4 C  px        
   126     -0.831505  14 C  px              145      0.831505  16 C  px        
     8     -0.723632   2 C  s                27      0.723632   4 C  s         

 Vector   37  Occ=0.000000D+00  E= 2.653660D-01  Symmetry=b2
              MO Center=  2.3D-13, -3.0D-15,  5.2D-01, r^2= 1.2D+01
   Bfn.  Coefficient  Atom+Function         Bfn.  Coefficient  Atom+Function  
  ----- ------------  ---------------      ----- ------------  ---------------
    12     -1.393563   2 C  px               31      1.393563   4 C  px        
   126      1.393563  14 C  px              145     -1.393563  16 C  px        
    90      1.348786  10 C  pz              109     -1.348786  12 C  pz        
    78     -1.340172   9 H  s                97      1.340172  11 H  s         
     2      1.316653   1 H  s                21     -1.316653   3 H  s         

 Vector   38  Occ=0.000000D+00  E= 2.689567D-01  Symmetry=a1
              MO Center=  1.8D-17, -1.7D-16,  2.6D-01, r^2= 8.0D+00
   Bfn.  Coefficient  Atom+Function         Bfn.  Coefficient  Atom+Function  
  ----- ------------  ---------------      ----- ------------  ---------------
    78      1.030894   9 H  s                97      1.030894  11 H  s         
    90     -0.923144  10 C  pz              109     -0.923144  12 C  pz        
    40     -0.873818   5 H  s                59     -0.873818   7 H  s         
    52     -0.740559   6 C  pz               71     -0.740559   8 C  pz        
    14     -0.456123   2 C  pz               33     -0.456123   4 C  pz        

 Vector   39  Occ=0.000000D+00  E= 2.694979D-01  Symmetry=b1
              MO Center=  1.3D-15, -7.2D-16,  2.8D-01, r^2= 6.9D+00
   Bfn.  Coefficient  Atom+Function         Bfn.  Coefficient  Atom+Function  
  ----- ------------  ---------------      ----- ------------  ---------------
     2      0.857335   1 H  s                21      0.857335   3 H  s         
   116     -0.857335  13 H  s               135     -0.857335  15 H  s         
    12     -0.801277   2 C  px               31     -0.801277   4 C  px        
   126     -0.801277  14 C  px              145     -0.801277  16 C  px        
    88     -0.628282  10 C  px              107     -0.628282  12 C  px        

 Vector   40  Occ=0.000000D+00  E= 3.320066D-01  Symmetry=b2
              MO Center= -2.2D-15, -2.0D-15,  7.2D-01, r^2= 4.4D+00
   Bfn.  Coefficient  Atom+Function         Bfn.  Coefficient  Atom+Function  
  ----- ------------  ---------------      ----- ------------  ---------------
    89      1.318256  10 C  py              108      1.318256  12 C  py        
    84      0.705941  10 C  s               103     -0.705941  12 C  s         
    13      0.547936   2 C  py               32      0.547936   4 C  py        
   127      0.547936  14 C  py              146      0.547936  16 C  py        
     8      0.541937   2 C  s                27     -0.541937   4 C  s         

 Vector   41  Occ=0.000000D+00  E= 3.756616D-01  Symmetry=b1
              MO Center= -2.9D-16,  6.2D-16, -3.3D-01, r^2= 4.7D+00
   Bfn.  Coefficient  Atom+Function         Bfn.  Coefficient  Atom+Function  
  ----- ------------  ---------------      ----- ------------  ---------------
    50      1.144635   6 C  px               69      1.144635   8 C  px        
    14      0.778433   2 C  pz               33      0.778433   4 C  pz        
   128     -0.778433  14 C  pz              147     -0.778433  16 C  pz        
    88     -0.587494  10 C  px              107     -0.587494  12 C  px        
     8     -0.420278   2 C  s                27     -0.420278   4 C  s         

 Vector   42  Occ=0.000000D+00  E= 3.757761D-01  Symmetry=a2
              MO Center= -2.3D-15,  2.6D-16,  3.3D-02, r^2= 4.5D+00
   Bfn.  Coefficient  Atom+Function         Bfn.  Coefficient  Atom+Function  
  ----- ------------  ---------------      ----- ------------  ---------------
    13      0.931108   2 C  py               32      0.931108   4 C  py        
   127     -0.931108  14 C  py              146     -0.931108  16 C  py        
    88      0.730886  10 C  px              107     -0.730886  12 C  px        
    12      0.554073   2 C  px               31     -0.554073   4 C  px        
   126      0.554073  14 C  px              145     -0.554073  16 C  px        

 Vector   43  Occ=0.000000D+00  E= 4.099783D-01  Symmetry=b2
              MO Center= -2.2D-17, -5.0D-16, -1.3D-01, r^2= 5.6D+00
   Bfn.  Coefficient  Atom+Function         Bfn.  Coefficient  Atom+Function  
  ----- ------------  ---------------      ----- ------------  ---------------
    84      1.862544  10 C  s               103     -1.862544  12 C  s         
    90     -1.307487  10 C  pz              109      1.307487  12 C  pz        
    46     -1.243947   6 C  s                65      1.243947   8 C  s         
    14     -1.104885   2 C  pz               33      1.104885   4 C  pz        
   128     -1.104885  14 C  pz              147      1.104885  16 C  pz        

 Vector   44  Occ=0.000000D+00  E= 4.210478D-01  Symmetry=a2
              MO Center=  5.1D-15,  1.4D-15, -3.4D-01, r^2= 6.5D+00
   Bfn.  Coefficient  Atom+Function         Bfn.  Coefficient  Atom+Function  
  ----- ------------  ---------------      ----- ------------  ---------------
     8      2.110432   2 C  s                27     -2.110432   4 C  s         
   122     -2.110432  14 C  s               141      2.110432  16 C  s         
    12     -1.235575   2 C  px               31      1.235575   4 C  px        
   126     -1.235575  14 C  px              145      1.235575  16 C  px        
    13      1.129364   2 C  py               32      1.129364   4 C  py        

 Vector   45  Occ=0.000000D+00  E= 4.308920D-01  Symmetry=a1
              MO Center= -4.2D-15,  5.7D-15, -1.4D-02, r^2= 5.9D+00
   Bfn.  Coefficient  Atom+Function         Bfn.  Coefficient  Atom+Function  
  ----- ------------  ---------------      ----- ------------  ---------------
    46     -1.930914   6 C  s                65     -1.930914   8 C  s         
     8      1.811195   2 C  s                27      1.811195   4 C  s         
   122      1.811195  14 C  s               141      1.811195  16 C  s         
    84     -1.453864  10 C  s               103     -1.453864  12 C  s         
    52     -1.374597   6 C  pz               71     -1.374597   8 C  pz        

 Vector   46  Occ=0.000000D+00  E= 5.139615D-01  Symmetry=a2
              MO Center=  1.0D-15, -1.6D-15,  1.4D-01, r^2= 5.2D+00
   Bfn.  Coefficient  Atom+Function         Bfn.  Coefficient  Atom+Function  
  ----- ------------  ---------------      ----- ------------  ---------------
    88      1.504597  10 C  px              107     -1.504597  12 C  px        
    14     -1.363451   2 C  pz               33      1.363451   4 C  pz        
   128      1.363451  14 C  pz              147     -1.363451  16 C  pz        
    50     -1.291121   6 C  px               69      1.291121   8 C  px        
    13     -0.765148   2 C  py               32     -0.765148   4 C  py        


 center of mass
 --------------
 x =   0.00000000 y =   0.00000000 z =   0.00073946

 moments of inertia (a.u.)
 ------------------
         598.752488061006           0.000000000000           0.000000000000
           0.000000000000         520.466790227514           0.000000000000
           0.000000000000           0.000000000000         611.362083707789

  Mulliken analysis of the total density
  --------------------------------------

    Atom       Charge   Shell Charges
 -----------   ------   -------------------------------------------------------
    1 H    1     1.00   0.76  0.21  0.03
    2 C    6     5.98   2.01  0.64  0.55  1.97  0.72  0.10
    3 H    1     1.00   0.76  0.21  0.03
    4 C    6     5.98   2.01  0.64  0.55  1.97  0.72  0.10
    5 H    1     0.95   0.73  0.19  0.03
    6 C    6     6.08   2.00  0.67  0.57  1.85  0.92  0.07
    7 H    1     0.95   0.73  0.19  0.03
    8 C    6     6.08   2.00  0.67  0.57  1.85  0.92  0.07
    9 H    1     1.00   0.75  0.21  0.03
   10 C    6     6.00   2.01  0.63  0.57  1.98  0.72  0.09
   11 H    1     1.00   0.75  0.21  0.03
   12 C    6     6.00   2.01  0.63  0.57  1.98  0.72  0.09
   13 H    1     1.00   0.76  0.21  0.03
   14 C    6     5.98   2.01  0.64  0.55  1.97  0.72  0.10
   15 H    1     1.00   0.76  0.21  0.03
   16 C    6     5.98   2.01  0.64  0.55  1.97  0.72  0.10

       Multipole analysis of the density wrt the origin
       ------------------------------------------------

     L   x y z        total         open         nuclear
     -   - - -        -----         ----         -------
     0   0 0 0     -0.000000      0.000000     56.000000

     1   1 0 0     -0.000000      0.000000     -0.000000
     1   0 1 0     -0.000000      0.000000      0.000000
     1   0 0 1      0.080907      0.000000     -0.000000

     2   2 0 0    -35.301231      0.000000    163.262687
     2   1 1 0      0.000000      0.000000      0.000000
     2   1 0 1      0.000000      0.000000      0.000000
     2   0 2 0    -35.610821      0.000000    201.382119
     2   0 1 1     -0.000000      0.000000      0.000000
     2   0 0 2    -35.536471      0.000000    155.752789

WARNING!!!!!!!! ROHF FOR MRCC CODE. OCC HAS BEEN CHANGED.
Occupation nocc(1)         28 nocc(2)         28 mult          1 nopen          0
                   NWChem Extensible Many-Electron Theory Module
                   ---------------------------------------------

              ======================================================
                   This portion of the program was automatically
                  generated by a Tensor Contraction Engine (TCE).
                  The development of this portion of the program
                 and TCE was supported by US Department of Energy,
                Office of Science, Office of Basic Energy Science.
                      TCE is a product of Battelle and PNNL.
              Please cite: S.Hirata, J.Phys.Chem.A 107, 9887 (2003).
              ======================================================

                       cubane MK-CCSD(2,2)/cc-pVDZ optimize


            General Information
            -------------------
      Number of processors :     1
         Wavefunction type : Restricted open-shell Hartree-Fock
          No. of electrons :    56
           Alpha electrons :    28
            Beta electrons :    28
           No. of orbitals :   304
            Alpha orbitals :   152
             Beta orbitals :   152
        Alpha frozen cores :     8
         Beta frozen cores :     8
     Alpha frozen virtuals :     0
      Beta frozen virtuals :     0
         Spin multiplicity : singlet 
    Number of AO functions :   152
       Number of AO shells :    72
        Use of symmetry is : on 
      Symmetry adaption is : on 
         Schwarz screening : 0.10D-09

          Correlation Information
          -----------------------
          Calculation type : State Specific Multireference Mukherjee's CCSD theory       
   Perturbative correction : none                                                        
            Max iterations :      100
        Residual threshold : 0.10D-06
     T(0) DIIS level shift : 0.00D+00
     L(0) DIIS level shift : 0.00D+00
     T(1) DIIS level shift : 0.00D+00
     L(1) DIIS level shift : 0.00D+00
     T(R) DIIS level shift : 0.00D+00
     T(I) DIIS level shift : 0.00D+00
   CC-T/L Amplitude update :  5-th order DIIS
                I/O scheme : Global Array Library

MRCC module - reference analysis

Fermi vacuum according to SCF wave function         has been requested.

MRCC module finished


 Global array virtual files algorithm will be used

 Parallel file system coherency ......... OK

            Memory Information
            ------------------
          Available GA space size is    1441745792 doubles
          Available MA space size is      26204116 doubles

Maximum block size doubles

nbf,nmo(1):   152   152


Blocks for reference    1

 Block   Spin    Irrep     Size     Offset   Alpha    Active
 -----------------------------------------------------------
   1    alpha     a1     7 doubles       0       1       F
   2    alpha     a2     3 doubles       7       2       F
   3    alpha     b1     4 doubles      10       3       F
   4    alpha     b2     5 doubles      14       4       F
   5    alpha     a1     1 doubles      19       5       T
   6    beta      a1     7 doubles      20       6       F
   7    beta      a2     3 doubles      27       7       F
   8    beta      b1     4 doubles      30       8       F
   9    beta      b2     5 doubles      34       9       F
  10    beta      a1     1 doubles      39      10       T
  11    alpha     b2     1 doubles      40      11       T
  12    alpha     a1    18 doubles      41      12       F
  13    alpha     a1    18 doubles      59      13       F
  14    alpha     a2    25 doubles      77      14       F
  15    alpha     b1    24 doubles     102      15       F
  16    alpha     b2    19 doubles     126      16       F
  17    alpha     b2    19 doubles     145      17       F
  18    beta      b2     1 doubles     164      18       T
  19    beta      a1    18 doubles     165      19       F
  20    beta      a1    18 doubles     183      20       F
  21    beta      a2    25 doubles     201      21       F
  22    beta      b1    24 doubles     226      22       F
  23    beta      b2    19 doubles     250      23       F
  24    beta      b2    19 doubles     269      24       F

Blocks for reference    2

 Block   Spin    Irrep     Size     Offset   Alpha    Active
 -----------------------------------------------------------
   1    alpha     a1     7 doubles       0       1       F
   2    alpha     a2     3 doubles       7       2       F
   3    alpha     b1     4 doubles      10       3       F
   4    alpha     b2     5 doubles      14       4       F
   5    alpha     b2     1 doubles      19       5       T
   6    beta      a1     7 doubles      20       6       F
   7    beta      a2     3 doubles      27       7       F
   8    beta      b1     4 doubles      30       8       F
   9    beta      b2     5 doubles      34       9       F
  10    beta      b2     1 doubles      39      10       T
  11    alpha     a1     1 doubles      40      11       T
  12    alpha     a1    18 doubles      41      12       F
  13    alpha     a1    18 doubles      59      13       F
  14    alpha     a2    25 doubles      77      14       F
  15    alpha     b1    24 doubles     102      15       F
  16    alpha     b2    19 doubles     126      16       F
  17    alpha     b2    19 doubles     145      17       F
  18    beta      a1     1 doubles     164      18       T
  19    beta      a1    18 doubles     165      19       F
  20    beta      a1    18 doubles     183      20       F
  21    beta      a2    25 doubles     201      21       F
  22    beta      b1    24 doubles     226      22       F
  23    beta      b2    19 doubles     250      23       F
  24    beta      b2    19 doubles     269      24       F

MRCC tiling completed in             0.0            0.0
tce_ao1e_fock2e       11.19550       11.11558
F:     1 in bytes =                87040
tce_mo1e        0.01052        0.00476
eone,etwo,enrep,energy  -1123.940246086184    459.066779892603    357.601201665284   -307.272264528298
mrcc_uhf_energy        2.81319        2.76134
tce_ao1e_fock2e       11.17103       11.12596
F:     2 in bytes =                87040
tce_mo1e        0.01014        0.00476
eone,etwo,enrep,energy  -1123.526266853073    458.728716023040    357.601201665284   -307.196349164749
mrcc_uhf_energy        2.79631        2.76831
2-e(intermediate) /mnt/scratch/cubane. in bytes=         8159223808
Ref.   1 Half 2-e         338.89         254.23
V 2-e /mnt/scratch/cubane. in bytes=         1437934592
Ref.   1 2-e transform. completed
2-e(intermediate) /mnt/scratch/cubane. in bytes=         8159223808
Ref.   2 Half 2-e         372.37         378.94
V 2-e /mnt/scratch/cubane. in bytes=         1437934592
Ref.   2 2-e transform. completed

Integral replication completed.
Proceeding the allocation of the memory for intermediates.

T2:     1 in bytes =             22333856
T1:     1 in bytes =                10464
T2:     2 in bytes =             22290336
T1:     2 in bytes =                10528
Done.


Symmetry of references

Ref.   1 sym:a1  
Ref.   2 sym:a1  
MR MkCCSD, version 1.0

Heff
=============================================
    0    1 -664.87346619    0.09099601
    0    2    0.09099601 -664.79755083

Eigenvalues (real and imaginary)
=============================================
 -664.934103942591    0.00000000
 -664.736913081023    0.00000000

Left eigenvectors
=============================================
    1   -0.83216110   -0.55453395
    2    0.55453395   -0.83216110

Right eigenvectors
=============================================
VR    1   -0.83216110   -0.55453395
VR    2    0.55453395   -0.83216110
Target root:    1

MkCC iter. #   1      -664.9341039425914      -307.3329022773077      -664.9341039425914
ddot R:  0.043049167242  1.462082790395
Iter cpu            41.9           67.2   1

Heff
=============================================
    0    1 -665.76726341    0.07255516
    0    2    0.06541396 -665.39842064

Eigenvalues (real and imaginary)
=============================================
 -665.779710937545    0.00000000
 -665.385973115605    0.00000000

Left eigenvectors
=============================================
    1   -0.98237244   -0.16908914
    2    0.18693419   -0.98560076

Right eigenvectors
=============================================
VR    1   -0.98560076   -0.18693419
VR    2    0.16908914   -0.98237244
Target root:    1

MkCC iter. #   2      -665.7797109375449      -308.1785092722612        -0.8456069949535
ddot R:  0.104267473114  0.436106745086
Iter cpu            35.5           30.3   2

Heff
=============================================
    0    1 -665.97843488    0.07134651
    0    2    0.06790883 -665.48047438

Eigenvalues (real and imaginary)
=============================================
 -665.987981650378    0.00000000
 -665.470927601638    0.00000000

Left eigenvectors
=============================================
    1   -0.99026242   -0.13262653
    2    0.13921330   -0.99116608

Right eigenvectors
=============================================
VR    1   -0.99116608   -0.13921330
VR    2    0.13262653   -0.99026242
Target root:    1

MkCC iter. #   3      -665.9879816503782      -308.3867799850944        -0.2082707128333
ddot R:  0.037375135907  0.105121392245
Iter cpu            34.3           24.8   3

Heff
=============================================
    0    1 -666.00684956    0.07082706
    0    2    0.06917162 -665.53580809

Eigenvalues (real and imaginary)
=============================================
 -666.017030353078    0.00000000
 -665.525627299971    0.00000000

Left eigenvectors
=============================================
    1   -0.98934164   -0.14227919
    2    0.14561288   -0.98982657

Right eigenvectors
=============================================
VR    1   -0.98982657   -0.14561288
VR    2    0.14227919   -0.98934164
Target root:    1

MkCC iter. #   4      -666.0170303530778      -308.4158286877940        -0.0290487026996
ddot R:  0.012143209005  0.041560113516
Iter cpu            34.1           25.6   4

Heff
=============================================
    0    1 -666.01557281    0.07033831
    0    2    0.07008646 -665.58841713

Eigenvalues (real and imaginary)
=============================================
 -666.026817695536    0.00000000
 -665.577172250141    0.00000000

Left eigenvectors
=============================================
    1   -0.98737230   -0.15786394
    2    0.15841700   -0.98746087

Right eigenvectors
=============================================
VR    1   -0.98746087   -0.15841700
VR    2    0.15786394   -0.98737230
Target root:    1

MkCC iter. #   5      -666.0268176955359      -308.4256160302522        -0.0097873424581
ddot R:  0.005260770921  0.024104723974

 X matrix
-------------------------

              1         2         3         4         5
    1  -0.04503   0.18496  -0.22330  -1.36967   2.45304
-------------------------

Iter cpu            34.0           25.8   5

Heff
=============================================
    0    1 -666.04132125    0.06902535
    0    2    0.07022176 -665.68502846

Eigenvalues (real and imaginary)
=============================================
 -666.054442260293    0.00000000
 -665.671907452294    0.00000000

Left eigenvectors
=============================================
    1   -0.98298754   -0.18674571
    2    0.18367224   -0.98240829

Right eigenvectors
=============================================
VR    1   -0.98240829   -0.18367224
VR    2    0.18674571   -0.98298754
Target root:    1

MkCC iter. #   6      -666.0544422602931      -308.4532405950093        -0.0276245647572
ddot R:  0.008065853868  0.044214534235
Iter cpu            33.3           23.0   6

Heff
=============================================
    0    1 -666.01956950    0.06860843
    0    2    0.07144410 -665.72934745

Eigenvalues (real and imaginary)
=============================================
 -666.035576065739    0.00000000
 -665.713340884225    0.00000000

Left eigenvectors
=============================================
    1   -0.97580931   -0.22720174
    2    0.21862341   -0.97384771

Right eigenvectors
=============================================
VR    1   -0.97384771   -0.21862341
VR    2    0.22720174   -0.97580931
Target root:    1

MkCC iter. #   7      -666.0355760657388      -308.4343744004551         0.0188661945542
ddot R:  0.005170461152  0.022167698683
Iter cpu            33.2           22.4   7

Heff
=============================================
    0    1 -666.02124383    0.06806023
    0    2    0.07106624 -665.77444768

Eigenvalues (real and imaginary)
=============================================
 -666.039492748376    0.00000000
 -665.756198764981    0.00000000

Left eigenvectors
=============================================
    1   -0.96857593   -0.25898099
    2    0.24871807   -0.96588242

Right eigenvectors
=============================================
VR    1   -0.96588242   -0.24871807
VR    2    0.25898099   -0.96857593
Target root:    1

MkCC iter. #   8      -666.0394927483760      -308.4382910830923        -0.0039166826372
ddot R:  0.004311040288  0.021641255887
Iter cpu            33.2           22.4   8

Heff
=============================================
    0    1 -666.02023247    0.06749459
    0    2    0.07116999 -665.81575929

Eigenvalues (real and imaginary)
=============================================
 -666.041510690938    0.00000000
 -665.794481063801    0.00000000

Left eigenvectors
=============================================
    1   -0.95809550   -0.30067060
    2    0.28644899   -0.95372805

Right eigenvectors
=============================================
VR    1   -0.95372805   -0.28644899
VR    2    0.30067060   -0.95809550
Target root:    1

MkCC iter. #   9      -666.0415106909383      -308.4403090256545        -0.0020179425622
ddot R:  0.004922105183  0.022361128033
Iter cpu            33.4           22.4   9

Heff
=============================================
    0    1 -666.02005633    0.06691056
    0    2    0.07114688 -665.85307860

Eigenvalues (real and imaginary)
=============================================
 -666.044876599595    0.00000000
 -665.828258336512    0.00000000

Left eigenvectors
=============================================
    1   -0.94419363   -0.34778969
    2    0.32939094   -0.93757258

Right eigenvectors
=============================================
VR    1   -0.93757258   -0.32939094
VR    2    0.34778969   -0.94419363
Target root:    1

MkCC iter. #  10      -666.0448765995955      -308.4436749343117        -0.0033659086572
ddot R:  0.005444591649  0.022263331292

 X matrix
-------------------------

              1         2         3         4         5
    1   0.35069   4.45059   4.58594 -25.23895  16.85173
-------------------------

Iter cpu            33.4           22.7  10

Heff
=============================================
    0    1 -666.02634746    0.06560399
    0    2    0.07118758 -665.82479035

Eigenvalues (real and imaginary)
=============================================
 -666.047333046323    0.00000000
 -665.803804767287    0.00000000

Left eigenvectors
=============================================
    1   -0.95919001   -0.30467447
    2    0.28276232   -0.95245654

Right eigenvectors
=============================================
VR    1   -0.95245654   -0.28276232
VR    2    0.30467447   -0.95919001
Target root:    1

MkCC iter. #  11      -666.0473330463227      -308.4461313810390        -0.0024564467273
ddot R:  0.007396078373  0.029748347267
Iter cpu            33.7           22.4  11

Heff
=============================================
    0    1 -666.02218572    0.06562701
    0    2    0.07112497 -665.86176740

Eigenvalues (real and imaginary)
=============================================
 -666.047338925912    0.00000000
 -665.836614195604    0.00000000

Left eigenvectors
=============================================
    1   -0.94278099   -0.35788870
    2    0.33341267   -0.93376425

Right eigenvectors
=============================================
VR    1   -0.93376425   -0.33341267
VR    2    0.35788870   -0.94278099
Target root:    1

MkCC iter. #  12      -666.0473389259117      -308.4461372606280        -0.0000058795890
ddot R:  0.003511617964  0.023560713081
Iter cpu            34.3           22.4  12

Heff
=============================================
    0    1 -666.02043061    0.06551163
    0    2    0.07112409 -665.89360083

Eigenvalues (real and imaginary)
=============================================
 -666.050187085616    0.00000000
 -665.863844354063    0.00000000

Left eigenvectors
=============================================
    1   -0.92251672   -0.41355486
    2    0.38595712   -0.91047920

Right eigenvectors
=============================================
VR    1   -0.91047920   -0.38595712
VR    2    0.41355486   -0.92251672
Target root:    1

MkCC iter. #  13      -666.0501870856165      -308.4489854203327        -0.0028481597047
ddot R:  0.003504120585  0.020575503857
Iter cpu            33.4           22.4  13

Heff
=============================================
    0    1 -666.01968796    0.06531009
    0    2    0.07115345 -665.91892828

Eigenvalues (real and imaginary)
=============================================
 -666.054073477100    0.00000000
 -665.884542764352    0.00000000

Left eigenvectors
=============================================
    1   -0.90037529   -0.46587152
    2    0.43511418   -0.88485238

Right eigenvectors
=============================================
VR    1   -0.88485238   -0.43511418
VR    2    0.46587152   -0.90037529
Target root:    1

MkCC iter. #  14      -666.0540734770997      -308.4528718118160        -0.0038863914832
ddot R:  0.003652087267  0.016630228504
Iter cpu            33.8           22.4  14

Heff
=============================================
    0    1 -666.01924095    0.06508636
    0    2    0.07116634 -665.93727016

Eigenvalues (real and imaginary)
=============================================
 -666.057702138415    0.00000000
 -665.898808962975    0.00000000

Left eigenvectors
=============================================
    1   -0.87974321   -0.50873982
    2    0.47544913   -0.86092032

[...]
   18 Stretch                 14    16                       1.59214    0.00000
   19 Stretch                 15    16                       1.10210    0.00000
   20 Bend                     1     2     4               118.96607   -0.00000
   21 Bend                     1     2     6               122.10833   -0.00001
   22 Bend                     1     2    10               124.47722   -0.00000
   23 Bend                     2     4     3               118.96607   -0.00000
   24 Bend                     2     4     8               105.60721    0.00001
   25 Bend                     2     4    12                89.45765    0.00000
   26 Bend                     2     6     5               134.28700    0.00002
   27 Bend                     2     6    14                91.35312   -0.00005
   28 Bend                     2    10     9               124.60298   -0.00001
   29 Bend                     2    10    12                90.54235   -0.00000
   30 Bend                     2    10    14                87.42363    0.00002
   31 Bend                     3     4     8               122.10833   -0.00001
   32 Bend                     3     4    12               124.47722   -0.00000
   33 Bend                     4     2     6               105.60721    0.00001
   34 Bend                     4     2    10                89.45765    0.00000
   35 Bend                     4     8     7               134.28700    0.00002
   36 Bend                     4     8    16                91.35312   -0.00005
   37 Bend                     4    12    10                90.54235   -0.00000
   38 Bend                     4    12    11               124.60298   -0.00001
   39 Bend                     4    12    16                87.42363    0.00002
   40 Bend                     5     6    14               134.28700    0.00002
   41 Bend                     6     2    10                88.52386    0.00001
   42 Bend                     6    14    10                88.52386    0.00001
   43 Bend                     6    14    13               122.10833   -0.00001
   44 Bend                     6    14    16               105.60721    0.00001
   45 Bend                     7     8    16               134.28700    0.00002
   46 Bend                     8     4    12                88.52386    0.00001
   47 Bend                     8    16    12                88.52386    0.00001
   48 Bend                     8    16    14               105.60721    0.00001
   49 Bend                     8    16    15               122.10833   -0.00001
   50 Bend                     9    10    12               127.46892    0.00000
   51 Bend                     9    10    14               124.60298   -0.00001
   52 Bend                    10    12    11               127.46892    0.00000
   53 Bend                    10    12    16                90.54235   -0.00000
   54 Bend                    10    14    13               124.47722   -0.00000
   55 Bend                    10    14    16                89.45765    0.00000
   56 Bend                    11    12    16               124.60298   -0.00001
   57 Bend                    12    10    14                90.54235   -0.00000
   58 Bend                    12    16    14                89.45765    0.00000
   59 Bend                    12    16    15               124.47722   -0.00000
   60 Bend                    13    14    16               118.96607   -0.00000
   61 Bend                    14    16    15               118.96607   -0.00000
   62 Torsion                  1     2     4     3          -0.00000   -0.00000
   63 Torsion                  1     2     4     8         141.75775   -0.00001
   64 Torsion                  1     2     4    12        -129.92655    0.00001
   65 Torsion                  1     2     6     5         -36.52674   -0.00029
   66 Torsion                  1     2     6    14         146.36287   -0.00000
   67 Torsion                  1     2    10     9         -12.69184    0.00000
   68 Torsion                  1     2    10    12         125.52147   -0.00000
   69 Torsion                  1     2    10    14        -143.96001   -0.00000
   70 Torsion                  2     4     8     7        -103.73003    0.00030
   71 Torsion                  2     4     8    16          73.38036    0.00001
   72 Torsion                  2     4    12    10           0.00000    0.00000
   73 Torsion                  2     4    12    11         138.21332   -0.00001
   74 Torsion                  2     4    12    16         -90.51852   -0.00000
   75 Torsion                  2     6    14    10         -15.64386    0.00000
   76 Torsion                  2     6    14    13        -146.36287    0.00000
   77 Torsion                  2     6    14    16          73.38036    0.00001
   78 Torsion                  2    10    12     4          -0.00000   -0.00000
   79 Torsion                  2    10    12    11        -136.28573    0.00001
   80 Torsion                  2    10    12    16          87.42853    0.00002
   81 Torsion                  2    10    14     6          15.10923    0.00001
   82 Torsion                  2    10    14    13         143.96001    0.00000
   83 Torsion                  2    10    14    16         -90.51852   -0.00000
   84 Torsion                  3     4     2     6        -141.75775    0.00001
   85 Torsion                  3     4     2    10         129.92655   -0.00001
   86 Torsion                  3     4     8     7          36.52674    0.00029
   87 Torsion                  3     4     8    16        -146.36287    0.00000
   88 Torsion                  3     4    12    10        -125.52147    0.00000
   89 Torsion                  3     4    12    11          12.69184   -0.00000
   90 Torsion                  3     4    12    16         143.96001    0.00000
   91 Torsion                  4     2     6     5         103.73003   -0.00030
   92 Torsion                  4     2     6    14         -73.38036   -0.00001
   93 Torsion                  4     2    10     9        -138.21332    0.00001
   94 Torsion                  4     2    10    12          -0.00000   -0.00000
   95 Torsion                  4     2    10    14          90.51852    0.00000
   96 Torsion                  4     8    16    12          15.64386   -0.00000
   97 Torsion                  4     8    16    14         -73.38036   -0.00001
   98 Torsion                  4     8    16    15         146.36287   -0.00000
   99 Torsion                  4    12    10     9         136.28573   -0.00001
  100 Torsion                  4    12    10    14         -87.42853   -0.00002
  101 Torsion                  4    12    16     8         -15.10923   -0.00001
  102 Torsion                  4    12    16    14          90.51852    0.00000
  103 Torsion                  4    12    16    15        -143.96001   -0.00000
  104 Torsion                  5     6     2    10        -167.24575   -0.00029
  105 Torsion                  5     6    14    10         167.24575    0.00029
  106 Torsion                  5     6    14    13          36.52674    0.00029
  107 Torsion                  5     6    14    16        -103.73003    0.00030
  108 Torsion                  6     2     4     8           0.00000    0.00000
  109 Torsion                  6     2     4    12          88.31570    0.00001
  110 Torsion                  6     2    10     9         116.15893   -0.00000
  111 Torsion                  6     2    10    12        -105.62775   -0.00001
  112 Torsion                  6     2    10    14         -15.10923   -0.00001
  113 Torsion                  6    14    10     9        -116.15893    0.00000
  114 Torsion                  6    14    10    12         105.62775    0.00001
  115 Torsion                  6    14    16     8          -0.00000   -0.00000
  116 Torsion                  6    14    16    12         -88.31570   -0.00001
  117 Torsion                  6    14    16    15         141.75775   -0.00001
  118 Torsion                  7     8     4    12         167.24575    0.00029
  119 Torsion                  7     8    16    12        -167.24575   -0.00029
  120 Torsion                  7     8    16    14         103.73003   -0.00030
  121 Torsion                  7     8    16    15         -36.52674   -0.00029
  122 Torsion                  8     4     2    10         -88.31570   -0.00001
  123 Torsion                  8     4    12    10         105.62775    0.00001
  124 Torsion                  8     4    12    11        -116.15893    0.00000
  125 Torsion                  8     4    12    16          15.10923    0.00001
  126 Torsion                  8    16    12    10        -105.62775   -0.00001
  127 Torsion                  8    16    12    11         116.15893   -0.00000
  128 Torsion                  8    16    14    10          88.31570    0.00001
  129 Torsion                  8    16    14    13        -141.75775    0.00001
  130 Torsion                  9    10    12    11           0.00000    0.00000
  131 Torsion                  9    10    12    16        -136.28573    0.00001
  132 Torsion                  9    10    14    13          12.69184   -0.00000
  133 Torsion                  9    10    14    16         138.21332   -0.00001
  134 Torsion                 10     2     4    12          -0.00000   -0.00000
  135 Torsion                 10     2     6    14          15.64386   -0.00000
  136 Torsion                 10    12    16    14           0.00000    0.00000
  137 Torsion                 10    12    16    15         125.52147   -0.00000
  138 Torsion                 10    14    16    12           0.00000    0.00000
  139 Torsion                 10    14    16    15        -129.92655    0.00001
  140 Torsion                 11    12    10    14         136.28573   -0.00001
  141 Torsion                 11    12    16    14        -138.21332    0.00001
  142 Torsion                 11    12    16    15         -12.69184    0.00000
  143 Torsion                 12     4     8    16         -15.64386    0.00000
  144 Torsion                 12    10    14    13        -125.52147    0.00000
  145 Torsion                 12    10    14    16          -0.00000   -0.00000
  146 Torsion                 12    16    14    13         129.92655   -0.00001
  147 Torsion                 13    14    16    15           0.00000    0.00000
  148 Torsion                 14    10    12    16           0.00000    0.00000

 ==============================================================================
                                internuclear distances
 ------------------------------------------------------------------------------
       center one      |      center two      | atomic units |  angstroms
 ------------------------------------------------------------------------------
    2 C                |   1 H                |     2.08267  |     1.10210
    4 C                |   2 C                |     3.00871  |     1.59214
    4 C                |   3 H                |     2.08267  |     1.10210
    6 C                |   2 C                |     2.89296  |     1.53089
    6 C                |   5 H                |     2.06790  |     1.09429
    8 C                |   4 C                |     2.89296  |     1.53089
    8 C                |   7 H                |     2.06790  |     1.09429
   10 C                |   2 C                |     2.99501  |     1.58489
   10 C                |   9 H                |     2.07887  |     1.10009
   12 C                |   4 C                |     2.99501  |     1.58489
   12 C                |  10 C                |     2.95202  |     1.56214
   12 C                |  11 H                |     2.07887  |     1.10009
   14 C                |   6 C                |     2.89296  |     1.53089
   14 C                |  10 C                |     2.99501  |     1.58489
   14 C                |  13 H                |     2.08267  |     1.10210
   16 C                |   8 C                |     2.89296  |     1.53089
   16 C                |  12 C                |     2.99501  |     1.58489
   16 C                |  14 C                |     3.00871  |     1.59214
   16 C                |  15 H                |     2.08267  |     1.10210
 ------------------------------------------------------------------------------
                         number of included internuclear distances:         19
 ==============================================================================



 ==============================================================================
                                 internuclear angles
 ------------------------------------------------------------------------------
        center 1       |       center 2       |       center 3       |  degrees
 ------------------------------------------------------------------------------
    1 H                |   2 C                |   4 C                |   118.97
    1 H                |   2 C                |   6 C                |   122.11
    1 H                |   2 C                |  10 C                |   124.48
    4 C                |   2 C                |   6 C                |   105.61
    4 C                |   2 C                |  10 C                |    89.46
    6 C                |   2 C                |  10 C                |    88.52
    2 C                |   4 C                |   3 H                |   118.97
    2 C                |   4 C                |   8 C                |   105.61
    2 C                |   4 C                |  12 C                |    89.46
    3 H                |   4 C                |   8 C                |   122.11
    3 H                |   4 C                |  12 C                |   124.48
    8 C                |   4 C                |  12 C                |    88.52
    2 C                |   6 C                |   5 H                |   134.29
    2 C                |   6 C                |  14 C                |    91.35
    5 H                |   6 C                |  14 C                |   134.29
    4 C                |   8 C                |   7 H                |   134.29
    4 C                |   8 C                |  16 C                |    91.35
    7 H                |   8 C                |  16 C                |   134.29
    2 C                |  10 C                |   9 H                |   124.60
    2 C                |  10 C                |  12 C                |    90.54
    2 C                |  10 C                |  14 C                |    87.42
    9 H                |  10 C                |  12 C                |   127.47
    9 H                |  10 C                |  14 C                |   124.60
   12 C                |  10 C                |  14 C                |    90.54
    4 C                |  12 C                |  10 C                |    90.54
    4 C                |  12 C                |  11 H                |   124.60
    4 C                |  12 C                |  16 C                |    87.42
   10 C                |  12 C                |  11 H                |   127.47
   10 C                |  12 C                |  16 C                |    90.54
   11 H                |  12 C                |  16 C                |   124.60
    6 C                |  14 C                |  10 C                |    88.52
    6 C                |  14 C                |  13 H                |   122.11
    6 C                |  14 C                |  16 C                |   105.61
   10 C                |  14 C                |  13 H                |   124.48
   10 C                |  14 C                |  16 C                |    89.46
   13 H                |  14 C                |  16 C                |   118.97
    8 C                |  16 C                |  12 C                |    88.52
    8 C                |  16 C                |  14 C                |   105.61
    8 C                |  16 C                |  15 H                |   122.11
   12 C                |  16 C                |  14 C                |    89.46
   12 C                |  16 C                |  15 H                |   124.48
   14 C                |  16 C                |  15 H                |   118.97
 ------------------------------------------------------------------------------
                            number of included internuclear angles:         42
 ==============================================================================




 Task  times  cpu:   142926.6s     wall:   267526.8s
 Summary of allocated global arrays
-----------------------------------
  No active global arrays



                         GA Statistics for process    0
                         ------------------------------

       create   destroy   get      put      acc     scatter   gather  read&inc
calls: 4.65e+05 4.65e+05 1.88e+09 1.76e+07 1.40e+08    0        0     1.55e+09 
number of processes/call 1.00e+00 1.00e+00 1.00e+00 0.00e+00 0.00e+00
bytes total:             6.25e+13 1.67e+12 3.80e+12 0.00e+00 0.00e+00 1.24e+10
bytes remote:            0.00e+00 0.00e+00 0.00e+00 0.00e+00 0.00e+00 0.00e+00
Max memory consumed for GA by this process: 11036006408 bytes
MA_summarize_allocated_blocks: starting scan ...
MA_summarize_allocated_blocks: scan completed: 0 heap blocks, 0 stack blocks
MA usage statistics:

	allocation statistics:
					      heap	     stack
					      ----	     -----
	current number of blocks	         0	         0
	maximum number of blocks	        19	        75
	current total bytes		         0	         0
	maximum total bytes		     80104	 119891080
	maximum total K-bytes		        81	    119892
	maximum total M-bytes		         1	       120


                                NWChem Input Module
                                -------------------





                                     CITATION
                                     --------
                Please cite the following reference when publishing
                           results obtained with NWChem:

                 M. Valiev, E.J. Bylaska, N. Govind, K. Kowalski,
              T.P. Straatsma, H.J.J. van Dam, D. Wang, J. Nieplocha,
                        E. Apra, T.L. Windus, W.A. de Jong
                 "NWChem: a comprehensive and scalable open-source
                  solution for large scale molecular simulations"
                      Comput. Phys. Commun. 181, 1477 (2010)
                           doi:10.1016/j.cpc.2010.04.018

                                      AUTHORS
                                      -------
          E. Apra, E. J. Bylaska, W. A. de Jong, N. Govind, K. Kowalski,
       T. P. Straatsma, M. Valiev, H. J. J. van Dam, D. Wang, T. L. Windus,
        J. Hammond, J. Autschbach, K. Bhaskaran-Nair, J. Brabec, K. Lopata,
        S. Krishnamoorthy, W. Ma, M. Klemm, O. Villa, Y. Chen, V. Anisimov,
    F. Aquino, S. Hirata, M. T. Hackler, T. Risthaus, M. Malagoli, A. Marenich,
   A. Otero-de-la-Roza, J. Mullin, P. Nichols, R. Peverati, J. Pittner, Y. Zhao,
         P.-D. Fan, A. Fonari, R. J. Harrison, M. Dupuis, D. Silverstein,
    D. M. A. Smith, J. Nieplocha, V. Tipparaju, M. Krishnan, B. E. Van Kuiken,
        A. Vazquez-Mayagoitia, L. Jensen, M. Swart, Q. Wu, T. Van Voorhis,
     A. A. Auer, M. Nooijen, L. D. Crosby, E. Brown, G. Cisneros, G. I. Fann,
   H. Fruchtl, J. Garza, K. Hirao, R. A. Kendall, J. A. Nichols, K. Tsemekhman,
    K. Wolinski, J. Anchell, D. E. Bernholdt, P. Borowski, T. Clark, D. Clerc,
   H. Dachsel, M. J. O. Deegan, K. Dyall, D. Elwood, E. Glendening, M. Gutowski,
   A. C. Hess, J. Jaffe, B. G. Johnson, J. Ju, R. Kobayashi, R. Kutteh, Z. Lin,
   R. Littlefield, X. Long, B. Meng, T. Nakajima, S. Niu, L. Pollack, M. Rosing,
   K. Glaesemann, G. Sandrone, M. Stave, H. Taylor, G. Thomas, J. H. van Lenthe,
                               A. T. Wong, Z. Zhang.

 Total times  cpu:   142926.6s     wall:   267527.1s
