
                                 *****************
                                 * O   R   C   A *
                                 *****************

           --- An Ab Initio, DFT and Semiempirical electronic structure package ---

                  #######################################################
                  #                        -***-                        #
                  #  Department of molecular theory and spectroscopy    #
                  #              Directorship: Frank Neese              #
                  # Max Planck Institute for Chemical Energy Conversion #
                  #                  D-45470 Muelheim/Ruhr              #
                  #                       Germany                       #
                  #                                                     #
                  #                  All rights reserved                #
                  #                        -***-                        #
                  #######################################################


                         Program Version 4.0.0 -  RELEASE  -


 With contributions from (in alphabetic order):
   Daniel Aravena         : Magnetic Properties
   Michael Atanasov       : Ab Initio Ligand Field Theory
   Ute Becker             : Parallelization
   Martin Brehm           : Molecular dynamics
   Dmytro Bykov           : SCF Hessian
   Vijay G. Chilkuri      : MRCI spin determinant printing
   Dipayan Datta          : RHF DLPNO-CCSD density
   Achintya Kumar Dutta   : EOM-CC, STEOM-CC
   Dmitry Ganyushin       : Spin-Orbit,Spin-Spin,Magnetic field MRCI
   Yang Guo               : DLPNO-NEVPT2, CIM, IAO-localization
   Andreas Hansen         : Spin unrestricted coupled pair/coupled cluster methods
   Lee Huntington         : MR-EOM, pCC
   Robert Izsak           : Overlap fitted RIJCOSX, COSX-SCS-MP3, EOM
   Christian Kollmar      : KDIIS, OOCD, Brueckner-CCSD(T), CCSD density
   Simone Kossmann        : Meta GGA functionals, TD-DFT gradient, OOMP2, MP2 Hessian
   Martin Krupicka        : AUTO-CI
   Dagmar Lenk            : GEPOL surface
   Dimitrios Liakos       : Extrapolation schemes; parallel MDCI
   Dimitrios Manganas     : ROCIS; embedding schemes
   Dimitrios Pantazis     : SARC Basis sets
   Taras Petrenko         : DFT Hessian,TD-DFT gradient, ASA, ECA, R-Raman, ABS, FL, XAS/XES, NRVS
   Peter Pinski           : DLPNO-MP2
   Christoph Reimann      : Effective Core Potentials
   Marius Retegan         : Local ZFS, SOC
   Christoph Riplinger    : Optimizer, TS searches, QM/MM, DLPNO-CCSD(T), (RO)-DLPNO pert. Triples
   Tobias Risthaus        : Range-separated hybrids, TD-DFT gradient, RPA, STAB
   Michael Roemelt        : Restricted open shell CIS
   Masaaki Saitow         : Open-shell DLPNO
   Barbara Sandhoefer     : DKH picture change effects
   Kantharuban Sivalingam : CASSCF convergence, NEVPT2, FIC-MRCI
   Georgi Stoychev        : AutoAux
   Boris Wezisla          : Elementary symmetry handling
   Frank Wennmohs         : Technical directorship


 We gratefully acknowledge several colleagues who have allowed us to
 interface, adapt or use parts of their codes:
   Stefan Grimme, W. Hujo, H. Kruse,             : VdW corrections, initial TS optimization,
                  C. Bannwarth                     DFT functionals, gCP, sTDA/sTD-DF
   Ed Valeev                                     : LibInt (2-el integral package), F12 methods
   Garnet Chan, S. Sharma, J. Yang, R. Olivares  : DMRG
   Ulf Ekstrom                                   : XCFun DFT Library
   Mihaly Kallay                                 : mrcc  (arbitrary order and MRCC methods)
   Jiri Pittner, Ondrej Demel                    : Mk-CCSD
   Frank Weinhold                                : gennbo (NPA and NBO analysis)
   Christopher J. Cramer and Donald G. Truhlar   : smd solvation model


 Your calculation uses the libint2 library for the computation of 2-el integrals
 For citations please refer to: http://libint.valeyev.net

 This ORCA versions uses:
   CBLAS   interface :  Fast vector & matrix operations
   LAPACKE interface :  Fast linear algebra routines
   SCALAPACK package :  Parallel linear algebra routines


Your calculation utilizes the basis: cc-pVTZ 
       H, B-Ne : Obtained from the ccRepo (grant-hill.group.shef.ac.uk/ccrepo) Feb. 2017
                 T. H. Dunning, Jr., J. Chem. Phys. 90, 1007 (1989)
            He : Obtained from the ccRepo (grant-hill.group.shef.ac.uk/ccrepo) Feb. 2017
                 D. E. Woon, T. H. Dunning, Jr., J. Chem. Phys. 100, 2975 (1994)
  Li-Be, Na-Mg : Obtained from the ccRepo (grant-hill.group.shef.ac.uk/ccrepo) Feb. 2017
                 B. P. Prascher, D. E. Woon, K. A. Peterson, T. H. Dunning, Jr., A. K. Wilson, Theor. Chem. Acc. 128, 69 (2011)
         Al-Ar : Obtained from the ccRepo (grant-hill.group.shef.ac.uk/ccrepo) Feb. 2017
                 D. E. Woon, T. H. Dunning, Jr., J. Chem. Phys. 98, 1358 (1993)
            Ca : Obtained from the Peterson Research Group Website (tyr0.chem.wsu.edu/~kipeters) Feb. 2017
                 J. Koput, K. A. Peterson, J. Phys. Chem. 106, 9595 (2002)
         Sc-Zn : Obtained from the ccRepo (grant-hill.group.shef.ac.uk/ccrepo) Feb. 2017
                 N. B. Balabanov, K. A. Peterson, J. Chem. Phys. 123, 064107 (2005)
                 N. B. Balabanov, K. A. Peterson, J. Chem. Phys. 125, 074110 (2006)
         Ga-Kr : Obtained from the ccRepo (grant-hill.group.shef.ac.uk/ccrepo) Feb. 2017
                 A. K. Wilson, D. E. Woon, K. A. Peterson, T. H. Dunning, Jr., J. Chem. Phys. 110, 7667 (1999)
             Y : Obtained from the ccRepo (grant-hill.group.shef.ac.uk/ccrepo) Feb. 2017
                 K. A. Peterson, D. Figgen, M. Dolg, H. Stoll, J. Chem. Phys. 126, 124101 (2007)
        Ag, Au : Obtained from the Peterson Research Group Website (tyr0.chem.wsu.edu/~kipeters) Feb. 2017
                 K. A. Peterson, C. Puzzarini, Theor. Chem. Acc. 114, 283 (2005)

Your calculation utilizes the auxiliary basis: cc-pVTZ/C 
  Obtained from the EMSL Basis Set Exchange (bse.pnl.gov) Feb. 2017
  H-He, B-F, Al-Ar, Ga-Kr : F. Weigend, A. Kohn, C. Hattig, J. Chem. Phys. 116, 3175 (2002)
             Li-Be, Na-Mg : C. Haettig, Phys. Chem. Chem. Phys. 7, 59 (2005)
                       Ne : C. Haettig, Phys. Chem. Chem. Phys. 7, 59 (2005)
                            F. Weigend, A. Kohn, C. Hattig, J. Chem. Phys. 116, 3175 (2002)
                    Sc-Zn : J. G. Hill, J. A. Platts, J. Chem. Phys. 128, 044104 (2008)

================================================================================
                                        WARNINGS
                       Please study these warnings very carefully!
================================================================================


WARNING: Geometry optimizations can change the point-group symmetry!

Warning: TCutStore was < 0. Adjusted to Thresh (uncritical)

WARNING: your system is open-shell and RHF/RKS was chosen
  ===> : WILL SWITCH to UHF/UKS


WARNING: The frozen-core approximation for MP2-gradient calculations is turned on by default.

WARNING: Geometry Optimization
  ===> : Switching off AutoStart
         For restart on a previous wavefunction, please use MOREAD

WARNING: Post HF methods need fully converged wavefunctions
  ===> : Setting SCFConvForced true
         You can overwrite this default with %scf ConvForced false 


INFO   : the flag for use of LIBINT has been found!

================================================================================
                                       INPUT FILE
================================================================================
NAME = /home/vladimir/git/private/ORCA/C8H8/T-cubane-1/MP2/cc-pVTZ/./cubane.inp
|  1> # ================================================================
|  2> # Orca input file for cubane RI-MP2/cc-pVTZ geometry optimization
|  3> # ================================================================
|  4> ! RI-MP2 cc-pVTZ cc-pVTZ/C TightSCF TightOPT UseSym
|  5> ! PAL4
|  6> 
|  7> * xyz 0 3
|  8>   H                     2.04592467    -1.27250530     0.01440655
|  9>   C                     1.06719732    -0.80539605    -0.05671004
| 10>   H                     2.04592467     1.27250530     0.01440655
| 11>   C                     1.06719732     0.80539605    -0.05671004
| 12>   H                     0.00000000    -1.52648170    -2.03483303
| 13>   C                     0.00000000    -1.31664326    -0.97321859
| 14>   H                     0.00000000     1.52648170    -2.03483303
| 15>   C                     0.00000000     1.31664326    -0.97321859
| 16>   H                     0.00000000    -1.44747020     1.94363256
| 17>   C                     0.00000000    -0.77177772     1.09450033
| 18>   H                     0.00000000     1.44747020     1.94363256
| 19>   C                     0.00000000     0.77177772     1.09450033
| 20>   H                    -2.04592467    -1.27250530     0.01440655
| 21>   C                    -1.06719732    -0.80539605    -0.05671004
| 22>   H                    -2.04592467     1.27250530     0.01440655
| 23>   C                    -1.06719732     0.80539605    -0.05671004
| 24> *
| 25> 
| 26>                          ****END OF INPUT****
================================================================================

------------------------------------------------------------------------------
                            SYMMETRY HANDLING SETUP
------------------------------------------------------------------------------

------------------
SYMMETRY DETECTION
------------------
Preparing Data                    ... done
Detection Threshold:    SymThresh ... 1.0000e-04

Point Group will now be determined:
Moving molecule to center of mass ... done

POINT GROUP                       ... C2v

The coordinates will now be cleaned:
Moving to standard coord frame    ... done
(Changed main axis to z and one of the symmetry planes to xz plane)
Structure cleanup requested       ... yes
Selected point group              ... C2v
Cleaning Tolerance      SymThresh ... 1.0000e-04

Some missing point group data is constructed:
Constructing symmetry operations  ... done
Creating atom transfer table      ... done
Creating asymmetric unit          ... done

Cleaning coordinates              ... done

-----------------------------------------------
SYMMETRY-PERFECTED CARTESIAN COORDINATES (A.U.)
-----------------------------------------------
   0 H     3.86623732   2.40468652  -0.02607992 
   1 C     2.01671067   1.52197796   0.10831096 
   2 H     3.86623732  -2.40468652  -0.02607992 
   3 C     2.01671067  -1.52197796   0.10831096 
   4 H     0.00000000   2.88463236   3.84642167 
   5 C     0.00000000   2.48809518   1.84026112 
   6 H     0.00000000  -2.88463236   3.84642167 
   7 C     0.00000000  -2.48809518   1.84026112 
   8 H     0.00000000   2.73532227  -3.67178873 
   9 C     0.00000000   1.45844853  -2.06716136 
  10 H     0.00000000  -2.73532227  -3.67178873 
  11 C     0.00000000  -1.45844853  -2.06716136 
  12 H    -3.86623732   2.40468652  -0.02607992 
  13 C    -2.01671067   1.52197796   0.10831096 
  14 H    -3.86623732  -2.40468652  -0.02607992 
  15 C    -2.01671067  -1.52197796   0.10831096 

------------------
SYMMETRY REDUCTION
------------------
ORCA supports only abelian point groups.
It is now checked, if the determined point group is supported:
Point Group ( C2v   ) is          ... supported

(Re)building abelian point group:
Creating Character Table          ... done
Making direct product table       ... done

----------------------
ASYMMETRIC UNIT IN C2v
----------------------
  #  AT     MASS              COORDS (A.U.)             BAS
   0 H    1.0080   3.86623732   2.40468652  -0.02607992   0
   1 C   12.0110   2.01671067   1.52197796   0.10831096   0
   4 H    1.0080   0.00000000   2.88463236   3.84642167   0
   5 C   12.0110   0.00000000   2.48809518   1.84026112   0
   8 H    1.0080   0.00000000   2.73532227  -3.67178873   0
   9 C   12.0110   0.00000000   1.45844853  -2.06716136   0

----------------------
SYMMETRY ADAPTED BASIS
----------------------
The coefficients for the symmetry adapted linear combinations (SALCS)
of basis functions will now be computed:
Number of basis functions         ...   352
Preparing memory                  ... done
Constructing Gamma(red)           ... done
Reducing Gamma(red)               ... done
Constructing SALCs                ... done
Checking SALC integrity           ... nothing suspicious
Normalizing SALCs                 ... done

Storing the symmetry object:
Symmetry file                     ... /home/vladimir/git/private/ORCA/C8H8/T-cubane-1/MP2/cc-pVTZ/./cubane.sym.tmp
Writing symmetry information      ... done

                       *****************************
                       * Geometry Optimization Run *
                       *****************************

Geometry optimization settings:
Update method            Update   .... BFGS
Choice of coordinates    CoordSys .... Redundant Internals
Initial Hessian          InHess   .... Almoef's Model

Convergence Tolerances:
Energy Change            TolE     ....  1.0000e-06 Eh
Max. Gradient            TolMAXG  ....  1.0000e-04 Eh/bohr
RMS Gradient             TolRMSG  ....  3.0000e-05 Eh/bohr
Max. Displacement        TolMAXD  ....  1.0000e-03 bohr
RMS Displacement         TolRMSD  ....  6.0000e-04 bohr

------------------------------------------------------------------------------
                        ORCA OPTIMIZATION COORDINATE SETUP
------------------------------------------------------------------------------

The optimization will be done in new redundant internal coordinates
Making redundant internal coordinates   ...  (new redundants) done
Evaluating the initial hessian          ...  (Almloef) done
Evaluating the coordinates              ...  done
Calculating the B-matrix                .... done
Calculating the G-matrix                .... done
Diagonalizing the G-matrix              .... done
The first mode is                       ....  106
The number of degrees of freedom        ....   42

    -----------------------------------------------------------------
                    Redundant Internal Coordinates


    -----------------------------------------------------------------
         Definition                    Initial Value    Approx d2E/dq
    -----------------------------------------------------------------
      1. B(C   1,H   0)                  1.0868         0.364345   
      2. B(C   3,C   1)                  1.6108         0.277638   
      3. B(C   3,H   2)                  1.0868         0.364345   
      4. B(C   5,H   4)                  1.0822         0.370630   
      5. B(C   5,C   1)                  1.4968         0.422104   
      6. B(C   7,H   6)                  1.0822         0.370630   
      7. B(C   7,C   3)                  1.4968         0.422104   
      8. B(C   9,H   8)                  1.0852         0.366552   
      9. B(C   9,C   1)                  1.5701         0.322362   
     10. B(C  11,H  10)                  1.0852         0.366552   
     11. B(C  11,C   9)                  1.5436         0.355427   
     12. B(C  11,C   3)                  1.5701         0.322362   
     13. B(C  13,H  12)                  1.0868         0.364345   
     14. B(C  13,C   9)                  1.5701         0.322362   
     15. B(C  13,C   5)                  1.4968         0.422104   
     16. B(C  15,H  14)                  1.0868         0.364345   
     17. B(C  15,C  13)                  1.6108         0.277638   
     18. B(C  15,C  11)                  1.5701         0.322362   
     19. B(C  15,C   7)                  1.4968         0.422104   
     20. A(H   0,C   1,C   5)          122.3684         0.331557   
     21. A(C   5,C   1,C   9)           88.3754         0.361784   
     22. A(H   0,C   1,C   3)          115.4548         0.309614   
     23. A(H   0,C   1,C   9)          124.9818         0.317200   
     24. A(C   3,C   1,C   5)          109.9726         0.352717   
     25. A(C   3,C   1,C   9)           88.7731         0.337107   
     26. A(H   2,C   3,C  11)          124.9818         0.317200   
     27. A(C   1,C   3,C  11)           88.7731         0.337107   
     28. A(H   2,C   3,C   7)          122.3684         0.331557   
     29. A(C   1,C   3,H   2)          115.4548         0.309614   
     30. A(C   1,C   3,C   7)          109.9726         0.352717   
     31. A(C   7,C   3,C  11)           88.3754         0.361784   
     32. A(H   4,C   5,C  13)          131.8315         0.332498   
     33. A(C   1,C   5,H   4)          131.8315         0.332498   
     34. A(C   1,C   5,C  13)           90.9604         0.378947   
     35. A(H   6,C   7,C  15)          131.8315         0.332498   
     36. A(C   3,C   7,C  15)           90.9604         0.378947   
     37. A(C   3,C   7,H   6)          131.8315         0.332498   
     38. A(C  11,C   9,C  13)           91.2269         0.351373   
     39. A(H   8,C   9,C  13)          124.0823         0.317512   
     40. A(C   1,C   9,H   8)          124.0823         0.317512   
     41. A(C   1,C   9,C  13)           85.6380         0.345638   
     42. A(H   8,C   9,C  11)          128.5108         0.322618   
     43. A(C   1,C   9,C  11)           91.2269         0.351373   
     44. A(C   3,C  11,C  15)           85.6380         0.345638   
     45. A(C   9,C  11,H  10)          128.5108         0.322618   
     46. A(C   3,C  11,H  10)          124.0823         0.317512   
     47. A(C   3,C  11,C   9)           91.2269         0.351373   
     48. A(H  10,C  11,C  15)          124.0823         0.317512   
     49. A(C   9,C  11,C  15)           91.2269         0.351373   
     50. A(C   9,C  13,H  12)          124.9818         0.317200   
     51. A(C   5,C  13,H  12)          122.3684         0.331557   
     52. A(C   5,C  13,C   9)           88.3754         0.361784   
     53. A(H  12,C  13,C  15)          115.4548         0.309614   
     54. A(C   9,C  13,C  15)           88.7731         0.337107   
     55. A(C   5,C  13,C  15)          109.9726         0.352717   
     56. A(C  13,C  15,H  14)          115.4548         0.309614   
     57. A(C  11,C  15,H  14)          124.9818         0.317200   
     58. A(C   7,C  15,H  14)          122.3684         0.331557   
     59. A(C  11,C  15,C  13)           88.7731         0.337107   
     60. A(C   7,C  15,C  13)          109.9726         0.352717   
     61. A(C   7,C  15,C  11)           88.3754         0.361784   
     62. D(C   7,C   3,C   1,C   9)    -87.8248         0.006580   
     63. D(C  11,C   3,C   1,C   9)     -0.0000         0.006580   
     64. D(H   2,C   3,C   1,H   0)      0.0000         0.006580   
     65. D(C  11,C   3,C   1,C   5)     87.8248         0.006580   
     66. D(H   2,C   3,C   1,C   5)   -143.5000         0.006580   
     67. D(H   2,C   3,C   1,C   9)    128.6753         0.006580   
     68. D(C   7,C   3,C   1,H   0)    143.5000         0.006580   
     69. D(C   7,C   3,C   1,C   5)      0.0000         0.006580   
     70. D(C  11,C   3,C   1,H   0)   -128.6753         0.006580   
     71. D(C  13,C   5,C   1,C   9)     19.7925         0.013171   
     72. D(C  13,C   5,C   1,C   3)    -68.3108         0.013171   
     73. D(C  13,C   5,C   1,H   0)    151.1747         0.013171   
     74. D(H   4,C   5,C   1,C   9)    175.3286         0.013171   
     75. D(H   4,C   5,C   1,C   3)     87.2254         0.013171   
     76. D(H   4,C   5,C   1,H   0)    -53.2892         0.013171   
     77. D(C  15,C   7,C   3,C  11)    -19.7925         0.013171   
     78. D(C  15,C   7,C   3,C   1)     68.3108         0.013171   
     79. D(C  15,C   7,C   3,H   2)   -151.1747         0.013171   
     80. D(H   6,C   7,C   3,C  11)   -175.3286         0.013171   
     81. D(H   6,C   7,C   3,H   2)     53.2892         0.013171   
     82. D(H   6,C   7,C   3,C   1)    -87.2254         0.013171   
     83. D(C  11,C   9,C   1,C   3)      0.0000         0.008505   
     84. D(C  13,C   9,C   1,H   0)   -148.2187         0.008505   
     85. D(C  13,C   9,C   1,C   5)    -18.8857         0.008505   
     86. D(C  13,C   9,C   1,C   3)     91.1371         0.008505   
     87. D(C  11,C   9,C   1,H   0)    120.6442         0.008505   
     88. D(H   8,C   9,C   1,C   5)    109.9403         0.008505   
     89. D(H   8,C   9,C   1,H   0)    -19.3928         0.008505   
     90. D(C  11,C   9,C   1,C   5)   -110.0228         0.008505   
     91. D(H   8,C   9,C   1,C   3)   -140.0369         0.008505   
     92. D(C   9,C  11,C   3,C   1)      0.0000         0.008505   
     93. D(C  15,C  11,C   9,C  13)      0.0000         0.010154   
     94. D(C  15,C  11,C   9,C   1)     85.6624         0.010154   
     95. D(H  10,C  11,C   9,C  13)    137.1688         0.010154   
     96. D(H  10,C  11,C   9,H   8)      0.0000         0.010154   
     97. D(H  10,C  11,C   3,H   2)     19.3928         0.008505   
     98. D(C   3,C  11,C   9,C   1)      0.0000         0.010154   
     99. D(C  15,C  11,C   3,H   2)    148.2187         0.008505   
    100. D(C  15,C  11,C   3,C   1)    -91.1371         0.008505   
    101. D(H  10,C  11,C   3,C   7)   -109.9403         0.008505   
    102. D(C  15,C  11,C   3,C   7)     18.8857         0.008505   
    103. D(C   3,C  11,C   9,C  13)    -85.6624         0.010154   
    104. D(H  10,C  11,C   3,C   1)    140.0369         0.008505   
    105. D(H  10,C  11,C   9,C   1)   -137.1688         0.010154   
    106. D(C   9,C  11,C   3,C   7)    110.0228         0.008505   
    107. D(C  15,C  11,C   9,H   8)   -137.1688         0.010154   
    108. D(C   9,C  11,C   3,H   2)   -120.6442         0.008505   
    109. D(C   3,C  11,C   9,H   8)    137.1688         0.010154   
    110. D(C  15,C  13,C   9,H   8)    140.0369         0.008505   
    111. D(C  15,C  13,C   9,C   1)    -91.1371         0.008505   
    112. D(H  12,C  13,C   9,C  11)   -120.6442         0.008505   
    113. D(H  12,C  13,C   9,C   1)    148.2187         0.008505   
    114. D(C   5,C  13,C   9,C  11)    110.0228         0.008505   
    115. D(C   5,C  13,C   9,H   8)   -109.9403         0.008505   
    116. D(C   5,C  13,C   9,C   1)     18.8857         0.008505   
    117. D(C  15,C  13,C   5,H   4)    -87.2254         0.013171   
    118. D(C  15,C  13,C   5,C   1)     68.3108         0.013171   
    119. D(H  12,C  13,C   9,H   8)     19.3928         0.008505   
    120. D(H  12,C  13,C   5,H   4)     53.2892         0.013171   
    121. D(H  12,C  13,C   5,C   1)   -151.1747         0.013171   
    122. D(C   9,C  13,C   5,H   4)   -175.3286         0.013171   
    123. D(C  15,C  13,C   9,C  11)      0.0000         0.008505   
    124. D(C   9,C  13,C   5,C   1)    -19.7925         0.013171   
    125. D(H  14,C  15,C  13,C   9)   -128.6753         0.006580   
    126. D(H  14,C  15,C  13,C   5)    143.5000         0.006580   
    127. D(C  11,C  15,C  13,H  12)    128.6753         0.006580   
    128. D(C  11,C  15,C  13,C   9)      0.0000         0.006580   
    129. D(C  11,C  15,C  13,C   5)    -87.8248         0.006580   
    130. D(C   7,C  15,C  13,H  12)   -143.5000         0.006580   
    131. D(C   7,C  15,C  13,C   9)     87.8248         0.006580   
    132. D(H  14,C  15,C  11,H  10)    -19.3928         0.008505   
    133. D(H  14,C  15,C  11,C   9)    120.6442         0.008505   
    134. D(H  14,C  15,C  11,C   3)   -148.2187         0.008505   
    135. D(C  13,C  15,C  11,H  10)   -140.0369         0.008505   
    136. D(C  13,C  15,C  11,C   9)      0.0000         0.008505   
    137. D(C  13,C  15,C  11,C   3)     91.1371         0.008505   
    138. D(C   7,C  15,C  11,H  10)    109.9403         0.008505   
    139. D(C   7,C  15,C  13,C   5)     -0.0000         0.006580   
    140. D(C   7,C  15,C  11,C   9)   -110.0228         0.008505   
    141. D(C   7,C  15,C  11,C   3)    -18.8857         0.008505   
    142. D(H  14,C  15,C   7,H   6)    -53.2892         0.013171   
    143. D(H  14,C  15,C   7,C   3)    151.1747         0.013171   
    144. D(C  13,C  15,C   7,H   6)     87.2254         0.013171   
    145. D(C  13,C  15,C   7,C   3)    -68.3108         0.013171   
    146. D(C  11,C  15,C   7,H   6)    175.3286         0.013171   
    147. D(H  14,C  15,C  13,H  12)      0.0000         0.006580   
    148. D(C  11,C  15,C   7,C   3)     19.7925         0.013171   
    -----------------------------------------------------------------

Number of atoms                         .... 16
Number of degrees of freedom            .... 148

         *************************************************************
         *                GEOMETRY OPTIMIZATION CYCLE   1            *
         *************************************************************
---------------------------------
CARTESIAN COORDINATES (ANGSTROEM)
---------------------------------
  H      2.045925    1.272505   -0.013801
  C      1.067197    0.805396    0.057316
  H      2.045925   -1.272505   -0.013801
  C      1.067197   -0.805396    0.057316
  H      0.000000    1.526482    2.035439
  C      0.000000    1.316643    0.973824
  H      0.000000   -1.526482    2.035439
  C      0.000000   -1.316643    0.973824
  H      0.000000    1.447470   -1.943027
  C      0.000000    0.771778   -1.093895
  H      0.000000   -1.447470   -1.943027
  C      0.000000   -0.771778   -1.093895
  H     -2.045925    1.272505   -0.013801
  C     -1.067197    0.805396    0.057316
  H     -2.045925   -1.272505   -0.013801
  C     -1.067197   -0.805396    0.057316

----------------------------
CARTESIAN COORDINATES (A.U.)
----------------------------
  NO LB      ZA    FRAG     MASS         X           Y           Z
   0 H     1.0000    0     1.008    3.866237    2.404687   -0.026080
   1 C     6.0000    0    12.011    2.016711    1.521978    0.108311
   2 H     1.0000    0     1.008    3.866237   -2.404687   -0.026080
   3 C     6.0000    0    12.011    2.016711   -1.521978    0.108311
   4 H     1.0000    0     1.008    0.000000    2.884632    3.846422
   5 C     6.0000    0    12.011    0.000000    2.488095    1.840261
   6 H     1.0000    0     1.008    0.000000   -2.884632    3.846422
   7 C     6.0000    0    12.011    0.000000   -2.488095    1.840261
   8 H     1.0000    0     1.008    0.000000    2.735322   -3.671789
   9 C     6.0000    0    12.011    0.000000    1.458449   -2.067161
  10 H     1.0000    0     1.008    0.000000   -2.735322   -3.671789
  11 C     6.0000    0    12.011    0.000000   -1.458449   -2.067161
  12 H     1.0000    0     1.008   -3.866237    2.404687   -0.026080
  13 C     6.0000    0    12.011   -2.016711    1.521978    0.108311
  14 H     1.0000    0     1.008   -3.866237   -2.404687   -0.026080
  15 C     6.0000    0    12.011   -2.016711   -1.521978    0.108311

--------------------------------
INTERNAL COORDINATES (ANGSTROEM)
--------------------------------
 H      0   0   0     0.000000000000     0.00000000     0.00000000
 C      1   0   0     1.086809940351     0.00000000     0.00000000
 H      2   1   0     2.297964058758    90.17532418     0.00000000
 C      3   2   1     1.086809940351    39.26578168   180.00000000
 H      2   1   3     2.360475629617   109.31062568   121.68774874
 C      5   2   1     1.082154051010    28.19452145   134.15418086
 H      4   3   2     2.360475629617   109.31062568   238.31225126
 C      7   4   3     1.082154051010    28.19452145   225.84581914
 H      2   1   3     2.356382789635   103.60308417   244.80672236
 C      9   2   1     1.085166287512    33.49602158   163.74545277
 H      4   3   2     2.356382789635   103.60308417   115.19327764
 C     11   4   3     1.085166287512    33.49602158   196.25454723
 H      6   5   2     2.272258641085   115.47781645   167.26367156
 C     13   6   5     1.086809940351    33.80439845   221.42761179
 H      8   7   4     2.272258641085   115.47781645   192.73632844
 C     15   8   7     1.086809940351    33.80439845   138.57238821

---------------------------
INTERNAL COORDINATES (A.U.)
---------------------------
 H      0   0   0     0.000000000000     0.00000000     0.00000000
 C      1   0   0     2.053773146888     0.00000000     0.00000000
 H      2   1   0     4.342522736647    90.17532418     0.00000000
 C      3   2   1     2.053773146888    39.26578168   180.00000000
 H      2   1   3     4.460652485772   109.31062568   121.68774874
 C      5   2   1     2.044974791123    28.19452145   134.15418086
 H      4   3   2     4.460652485772   109.31062568   238.31225126
 C      7   4   3     2.044974791123    28.19452145   225.84581914
 H      2   1   3     4.452918139096   103.60308417   244.80672236
 C      9   2   1     2.050667093162    33.49602158   163.74545277
 H      4   3   2     4.452918139096   103.60308417   115.19327764
 C     11   4   3     2.050667093162    33.49602158   196.25454723
 H      6   5   2     4.293946537088   115.47781645   167.26367156
 C     13   6   5     2.053773146888    33.80439845   221.42761179
 H      8   7   4     4.293946537088   115.47781645   192.73632844
 C     15   8   7     2.053773146888    33.80439845   138.57238821

---------------------
BASIS SET INFORMATION
---------------------
There are 2 groups of distinct atoms

 Group   1 Type H   : 5s2p1d contracted to 3s2p1d pattern {311/11/1}
 Group   2 Type C   : 18s5p2d1f contracted to 4s3p2d1f pattern {8811/311/11/1}

Atom   0H    basis set group =>   1
Atom   1C    basis set group =>   2
Atom   2H    basis set group =>   1
Atom   3C    basis set group =>   2
Atom   4H    basis set group =>   1
Atom   5C    basis set group =>   2
Atom   6H    basis set group =>   1
Atom   7C    basis set group =>   2
Atom   8H    basis set group =>   1
Atom   9C    basis set group =>   2
Atom  10H    basis set group =>   1
Atom  11C    basis set group =>   2
Atom  12H    basis set group =>   1
Atom  13C    basis set group =>   2
Atom  14H    basis set group =>   1
Atom  15C    basis set group =>   2

INFORMATION: There is an auxiliary basis set but the global RI flag is NOT set

-------------------------------
AUXILIARY BASIS SET INFORMATION
-------------------------------
There are 2 groups of distinct atoms

 Group   1 Type H   : 4s3p2d1f contracted to 4s3p2d1f pattern {1111/111/11/1}
 Group   2 Type C   : 8s6p5d3f1g contracted to 8s6p5d3f1g pattern {11111111/111111/11111/111/1}

Atom   0H    basis set group =>   1
Atom   1C    basis set group =>   2
Atom   2H    basis set group =>   1
Atom   3C    basis set group =>   2
Atom   4H    basis set group =>   1
Atom   5C    basis set group =>   2
Atom   6H    basis set group =>   1
Atom   7C    basis set group =>   2
Atom   8H    basis set group =>   1
Atom   9C    basis set group =>   2
Atom  10H    basis set group =>   1
Atom  11C    basis set group =>   2
Atom  12H    basis set group =>   1
Atom  13C    basis set group =>   2
Atom  14H    basis set group =>   1
Atom  15C    basis set group =>   2


           ************************************************************
           *        Program running with 4 parallel MPI-processes     *
           *              working on a common directory               *
           ************************************************************
------------------------------------------------------------------------------
                           ORCA GTO INTEGRAL CALCULATION
------------------------------------------------------------------------------

                         BASIS SET STATISTICS AND STARTUP INFO

 # of primitive gaussian shells          ...  272
 # of primitive gaussian functions       ...  528
 # of contracted shells                  ...  128
 # of contracted basis functions         ...  352
 Highest angular momentum                ...    3
 Maximum contraction depth               ...    8
 Integral package used                   ... LIBINT
 Integral threshhold            Thresh   ...  2.500e-11
 Primitive cut-off              TCut     ...  2.500e-12


------------------------------ INTEGRAL EVALUATION ----------------------------


 * One electron integrals 
 Pre-screening matrix                    ... done
 Shell pair data                         ... done (   0.003 sec)



           ************************************************************
           *        Program running with 4 parallel MPI-processes     *
           *              working on a common directory               *
           ************************************************************
-------------------------------------------------------------------------------
                                 ORCA SCF
-------------------------------------------------------------------------------

------------
SCF SETTINGS
------------
Hamiltonian:
 Ab initio Hamiltonian  Method          .... Hartree-Fock(GTOs)


General Settings:
 Integral files         IntName         .... /home/vladimir/git/private/ORCA/C8H8/T-cubane-1/MP2/cc-pVTZ/./cubane
 Hartree-Fock type      HFTyp           .... UHF
 Total Charge           Charge          ....    0
 Multiplicity           Mult            ....    3
 Number of Electrons    NEL             ....   56
 Basis Dimension        Dim             ....  352
 Nuclear Repulsion      ENuc            ....    359.9115152260 Eh

 Symmetry handling      UseSym         .... ON
 Point group                           .... C2v
 Used point group                      .... C2v
 Number of irreps                      .... 4
   Irrep   A1 has  104 symmetry adapted basis functions (ofs=   0)
   Irrep   A2 has   72 symmetry adapted basis functions (ofs= 104)
   Irrep   B1 has   72 symmetry adapted basis functions (ofs= 176)
   Irrep   B2 has  104 symmetry adapted basis functions (ofs= 248)

Convergence Acceleration:
 DIIS                   CNVDIIS         .... on
   Start iteration      DIISMaxIt       ....    12
   Startup error        DIISStart       ....  0.200000
   # of expansion vecs  DIISMaxEq       ....     5
   Bias factor          DIISBfac        ....   1.050
   Max. coefficient     DIISMaxC        ....  10.000
 Newton-Raphson         CNVNR           .... off
 SOSCF                  CNVSOSCF        .... off
 Level Shifting         CNVShift        .... on
   Level shift para.    LevelShift      ....    0.2500
   Turn off err/grad.   ShiftErr        ....    0.0010
 Zerner damping         CNVZerner       .... off
 Static damping         CNVDamp         .... on
   Fraction old density DampFac         ....    0.7000
   Max. Damping (<1)    DampMax         ....    0.9800
   Min. Damping (>=0)   DampMin         ....    0.0000
   Turn off err/grad.   DampErr         ....    0.1000
 Fernandez-Rico         CNVRico         .... off

SCF Procedure:
 Maximum # iterations   MaxIter         ....   125
 SCF integral mode      SCFMode         .... Direct
   Integral package                     .... LIBINT
 Reset frequeny         DirectResetFreq ....    20
 Integral Threshold     Thresh          ....  2.500e-11 Eh
 Primitive CutOff       TCut            ....  2.500e-12 Eh

Convergence Tolerance:
 Convergence Check Mode ConvCheckMode   .... Total+1el-Energy
 Convergence forced     ConvForced      .... 1
 Energy Change          TolE            ....  1.000e-08 Eh
 1-El. energy change                    ....  1.000e-05 Eh
 DIIS Error             TolErr          ....  5.000e-07


Diagonalization of the overlap matrix:
Smallest eigenvalue                        ... 2.699e-05
Time for diagonalization                   ...    0.022 sec
Threshold for overlap eigenvalues          ... 1.000e-08
Number of eigenvalues below threshold      ... 0
Time for construction of square roots      ...    0.011 sec
Producing symmetrization matrix            ... done (   0.006 sec)
Total time needed                          ...    0.039 sec

-------------------
DFT GRID GENERATION
-------------------

General Integration Accuracy     IntAcc      ...  4.340
Radial Grid Type                 RadialGrid  ... Gauss-Chebyshev
Angular Grid (max. acc.)         AngularGrid ... Lebedev-110
Angular grid pruning method      GridPruning ... 3 (G Style)
Weight generation scheme         WeightScheme... Becke
Basis function cutoff            BFCut       ...    1.0000e-11
Integration weight cutoff        WCut        ...    1.0000e-14
Grids for H and He will be reduced by one unit

# of grid points (after initial pruning)     ...  19600 (   0.0 sec)
# of grid points (after weights+screening)   ...  17852 (   0.0 sec)
nearest neighbour list constructed           ...    0.0 sec
Grid point re-assignment to atoms done       ...    0.0 sec
Grid point division into batches done        ...    0.0 sec
Reduced shell lists constructed in    0.1 sec

Total number of grid points                  ...    17852
Total number of batches                      ...      288
Average number of points per batch           ...       61
Average number of grid points per atom       ...     1116
Average number of shells per batch           ...   101.85 (79.57%)
Average number of basis functions per batch  ...   274.51 (77.98%)
Average number of large shells per batch     ...    81.03 (79.56%)
Average number of large basis fcns per batch ...   216.12 (78.73%)
Maximum spatial batch extension              ...  20.14, 17.91, 22.36 au
Average spatial batch extension              ...   0.93,  0.94,  0.97 au

Time for grid setup =    0.098 sec

------------------------------
INITIAL GUESS: MODEL POTENTIAL
------------------------------
Loading Hartree-Fock densities                     ... done
Calculating cut-offs                               ... done
Setting up the integral package                    ... done
Initializing the effective Hamiltonian             ... done
Starting the Coulomb interaction                   ... done (   0.1 sec)
Reading the grid                                   ... done
Mapping shells                                     ... done
Starting the XC term evaluation                    ... done (   0.2 sec)
done (   0.0 sec)
Diagonalizing the Hamiltonian                      ... done (   0.0 sec)
Back transforming the eigenvectors                 ... done (   0.0 sec)
Now organizing SCF variables                       ... done
The symmetry of the initial guess is 3-B2
Irrep occupations for operator 0
    A1 -   11
    A2 -    4
    B1 -    5
    B2 -    9
Irrep occupations for operator 1
    A1 -   10
    A2 -    4
    B1 -    5
    B2 -    8
                      ------------------
                      INITIAL GUESS DONE (   0.5 sec)
                      ------------------
--------------
SCF ITERATIONS
--------------
ITER       Energy         Delta-E        Max-DP      RMS-DP      [F,P]     Damp
               ***  Starting incremental Fock matrix formation  ***
  0   -307.1242817526   0.000000000000 0.04697102  0.00052690  0.1653138 0.7000
  1   -307.2329897729  -0.108708020295 0.02074862  0.00024794  0.1241131 0.7000
                               ***Turning on DIIS***
  2   -307.2992868254  -0.066297052484 0.03044382  0.00051411  0.0923462 0.0000
  3   -307.1077712069   0.191515618444 0.02952682  0.00032659  0.0212136 0.0000
  4   -307.7344975660  -0.626726359072 0.00532876  0.00007986  0.0095934 0.0000
  5   -307.4541995274   0.280298038587 0.00558329  0.00006492  0.0024607 0.0000
  6   -307.4556001693  -0.001400641835 0.00299929  0.00002999  0.0010659 0.0000
  7   -307.4580786522  -0.002478482908 0.00118923  0.00001245  0.0004206 0.0000
  8   -307.4557325374   0.002346114724 0.00074521  0.00000812  0.0002288 0.0000
  9   -307.4559547308  -0.000222193343 0.00026436  0.00000358  0.0000702 0.0000
 10   -307.4562899206  -0.000335189762 0.00011313  0.00000202  0.0000269 0.0000
 11   -307.4561638579   0.000126062695 0.00006579  0.00000134  0.0000127 0.0000
 12   -307.4562297394  -0.000065881502 0.00003878  0.00000088  0.0000068 0.0000
 13   -307.4562297552  -0.000000015792 0.00002592  0.00000052  0.0000037 0.0000
 14   -307.4562381427  -0.000008387579 0.00001481  0.00000027  0.0000016 0.0000
                            ***DIIS convergence achieved***

               *****************************************************
               *                     SUCCESS                       *
               *           SCF CONVERGED AFTER  15 CYCLES          *
               *****************************************************


----------------
TOTAL SCF ENERGY
----------------

Total Energy       :         -307.45623209 Eh           -8366.30941 eV

Components:
Nuclear Repulsion  :          359.91151523 Eh            9793.69023 eV
Electronic Energy  :         -667.36774732 Eh          -18159.99964 eV
One Electron Energy:        -1128.86391303 Eh          -30717.94874 eV
Two Electron Energy:          461.49616571 Eh           12557.94910 eV

Virial components:
Potential Energy   :         -614.61404826 Eh          -16724.49851 eV
Kinetic Energy     :          307.15781616 Eh            8358.18910 eV
Virial Ratio       :            2.00097154


---------------
SCF CONVERGENCE
---------------

  Last Energy change         ...    6.0504e-06  Tolerance :   1.0000e-08
  Last MAX-Density change    ...    7.5314e-06  Tolerance :   1.0000e-07
  Last RMS-Density change    ...    1.3068e-07  Tolerance :   5.0000e-09
  Last DIIS Error            ...    6.1555e-07  Tolerance :   5.0000e-07

             **** THE GBW FILE WAS UPDATED (/home/vladimir/git/private/ORCA/C8H8/T-cubane-1/MP2/cc-pVTZ/./cubane.gbw) ****
             **** DENSITY FILE WAS UPDATED (/home/vladimir/git/private/ORCA/C8H8/T-cubane-1/MP2/cc-pVTZ/./cubane.scfp.tmp) ****
             **** ENERGY FILE WAS UPDATED (/home/vladimir/git/private/ORCA/C8H8/T-cubane-1/MP2/cc-pVTZ/./cubane.en.tmp) ****
----------------------
UHF SPIN CONTAMINATION
----------------------

Expectation value of <S**2>     :     2.023774
Ideal value S*(S+1) for S=1.0   :     2.000000
Deviation                       :     0.023774

----------------
ORBITAL ENERGIES
----------------
                 SPIN UP ORBITALS
  NO   OCC          E(Eh)            E(eV)    Irrep 
   0   1.0000     -11.229670      -305.5748    1-A1
   1   1.0000     -11.229476      -305.5696    1-B1
   2   1.0000     -11.229309      -305.5650    1-B2
   3   1.0000     -11.229030      -305.5574    1-A2
   4   1.0000     -11.228070      -305.5313    2-A1
   5   1.0000     -11.228004      -305.5295    2-B2
   6   1.0000     -11.226313      -305.4835    3-A1
   7   1.0000     -11.225762      -305.4685    3-B2
   8   1.0000      -1.234793       -33.6004    4-A1
   9   1.0000      -1.063460       -28.9382    4-B2
  10   1.0000      -0.967361       -26.3232    2-B1
  11   1.0000      -0.954623       -25.9766    5-A1
  12   1.0000      -0.810479       -22.0543    5-B2
  13   1.0000      -0.790691       -21.5158    2-A2
  14   1.0000      -0.772447       -21.0193    6-A1
  15   1.0000      -0.710199       -19.3255    7-A1
  16   1.0000      -0.657621       -17.8948    6-B2
  17   1.0000      -0.637405       -17.3447    8-A1
  18   1.0000      -0.617404       -16.8004    7-B2
  19   1.0000      -0.578171       -15.7328    3-B1
  20   1.0000      -0.553075       -15.0499    9-A1
  21   1.0000      -0.530890       -14.4463    4-B1
  22   1.0000      -0.454760       -12.3746    3-A2
  23   1.0000      -0.440475       -11.9859    5-B1
  24   1.0000      -0.414884       -11.2896    8-B2
  25   1.0000      -0.414112       -11.2686   10-A1
  26   1.0000      -0.381943       -10.3932    4-A2
  27   1.0000      -0.366363        -9.9692    9-B2
  28   1.0000      -0.299184        -8.1412   11-A1
  29   0.0000       0.146537         3.9875   12-A1
  30   0.0000       0.159712         4.3460   13-A1
  31   0.0000       0.163267         4.4427    6-B1
  32   0.0000       0.180731         4.9179   10-B2
  33   0.0000       0.192006         5.2247   14-A1
  34   0.0000       0.199773         5.4361    5-A2
  35   0.0000       0.204852         5.5743   11-B2
  36   0.0000       0.227547         6.1919   12-B2
  37   0.0000       0.232928         6.3383   15-A1
  38   0.0000       0.242478         6.5982    7-B1
  39   0.0000       0.291323         7.9273   13-B2
  40   0.0000       0.331704         9.0261   16-A1
  41   0.0000       0.341497         9.2926    6-A2
  42   0.0000       0.348574         9.4852    8-B1
  43   0.0000       0.348757         9.4902    7-A2
  44   0.0000       0.350860         9.5474   14-B2
  45   0.0000       0.378465        10.2986   17-A1
  46   0.0000       0.380123        10.3437    9-B1
  47   0.0000       0.406282        11.0555   15-B2
  48   0.0000       0.409517        11.1435   18-A1
  49   0.0000       0.423223        11.5165   10-B1
  50   0.0000       0.423854        11.5337    8-A2
  51   0.0000       0.464375        12.6363   16-B2
  52   0.0000       0.485058        13.1991   19-A1
  53   0.0000       0.496636        13.5141   20-A1
  54   0.0000       0.496765        13.5177    9-A2
  55   0.0000       0.528650        14.3853   21-A1
  56   0.0000       0.531807        14.4712   17-B2
  57   0.0000       0.532130        14.4800   11-B1
  58   0.0000       0.574996        15.6464   18-B2
  59   0.0000       0.589989        16.0544   22-A1
  60   0.0000       0.597325        16.2540   23-A1
  61   0.0000       0.598752        16.2929   19-B2
  62   0.0000       0.602330        16.3902   10-A2
  63   0.0000       0.605637        16.4802   12-B1
  64   0.0000       0.621123        16.9016   20-B2
  65   0.0000       0.623558        16.9679   24-A1
  66   0.0000       0.626235        17.0407   13-B1
  67   0.0000       0.632929        17.2229   21-B2
  68   0.0000       0.637176        17.3385   11-A2
  69   0.0000       0.653918        17.7940   25-A1
  70   0.0000       0.655906        17.8481   14-B1
  71   0.0000       0.657602        17.8943   22-B2
  72   0.0000       0.666026        18.1235   12-A2
  73   0.0000       0.706539        19.2259   15-B1
  74   0.0000       0.725621        19.7451   23-B2
  75   0.0000       0.736407        20.0387   26-A1
  76   0.0000       0.736554        20.0427   13-A2
  77   0.0000       0.740583        20.1523   24-B2
  78   0.0000       0.760256        20.6876   27-A1
  79   0.0000       0.862476        23.4692   16-B1
  80   0.0000       0.866096        23.5677   25-B2
  81   0.0000       0.876369        23.8472   14-A2
  82   0.0000       0.894538        24.3416   26-B2
  83   0.0000       0.917263        24.9600   28-A1
  84   0.0000       0.944012        25.6879   29-A1
  85   0.0000       0.975236        26.5375   15-A2
  86   0.0000       1.021189        27.7880   30-A1
  87   0.0000       1.061235        28.8777   27-B2
  88   0.0000       1.088962        29.6322   16-A2
  89   0.0000       1.124450        30.5978   31-A1
  90   0.0000       1.126652        30.6578   28-B2
  91   0.0000       1.141899        31.0727   17-B1
  92   0.0000       1.153584        31.3906   18-B1
  93   0.0000       1.158272        31.5182   29-B2
  94   0.0000       1.163593        31.6630   32-A1
  95   0.0000       1.172985        31.9186   30-B2
  96   0.0000       1.183781        32.2123   19-B1
  97   0.0000       1.197742        32.5922   33-A1
  98   0.0000       1.204480        32.7756   17-A2
  99   0.0000       1.233133        33.5553   20-B1
 100   0.0000       1.236654        33.6511   34-A1
 101   0.0000       1.247184        33.9376   31-B2
 102   0.0000       1.254491        34.1364   18-A2
 103   0.0000       1.264497        34.4087   32-B2
 104   0.0000       1.273944        34.6658   21-B1
 105   0.0000       1.301369        35.4121   35-A1
 106   0.0000       1.317184        35.8424   22-B1
 107   0.0000       1.318586        35.8805   36-A1
 108   0.0000       1.326108        36.0852   33-B2
 109   0.0000       1.344193        36.5774   37-A1
 110   0.0000       1.373646        37.3788   23-B1
 111   0.0000       1.378349        37.5068   19-A2
 112   0.0000       1.383682        37.6519   34-B2
 113   0.0000       1.395273        37.9673   38-A1
 114   0.0000       1.406867        38.2828   20-A2
 115   0.0000       1.428983        38.8846   21-A2
 116   0.0000       1.429393        38.8958   24-B1
 117   0.0000       1.452406        39.5220   25-B1
 118   0.0000       1.452718        39.5305   39-A1
 119   0.0000       1.461073        39.7578   22-A2
 120   0.0000       1.472201        40.0606   35-B2
 121   0.0000       1.500280        40.8247   36-B2
 122   0.0000       1.503954        40.9247   40-A1
 123   0.0000       1.533262        41.7222   26-B1
 124   0.0000       1.533646        41.7326   23-A2
 125   0.0000       1.560815        42.4719   41-A1
 126   0.0000       1.561521        42.4912   37-B2
 127   0.0000       1.597529        43.4710   38-B2
 128   0.0000       1.603733        43.6398   42-A1
 129   0.0000       1.608948        43.7817   27-B1
 130   0.0000       1.610713        43.8297   24-A2
 131   0.0000       1.613539        43.9066   39-B2
 132   0.0000       1.633102        44.4390   40-B2
 133   0.0000       1.659355        45.1533   43-A1
 134   0.0000       1.688937        45.9583   44-A1
 135   0.0000       1.693769        46.0898   25-A2
 136   0.0000       1.737263        47.2733   28-B1
 137   0.0000       1.779713        48.4284   41-B2
 138   0.0000       1.850940        50.3666   45-A1
 139   0.0000       1.864866        50.7456   46-A1
 140   0.0000       1.865679        50.7677   26-A2
 141   0.0000       1.888115        51.3782   42-B2
 142   0.0000       1.892801        51.5057   29-B1
 143   0.0000       1.936408        52.6924   27-A2
 144   0.0000       1.938320        52.7444   43-B2
 145   0.0000       1.982430        53.9447   28-A2
 146   0.0000       2.016862        54.8816   44-B2
 147   0.0000       2.039665        55.5021   47-A1
 148   0.0000       2.069903        56.3249   45-B2
 149   0.0000       2.075112        56.4667   29-A2
 150   0.0000       2.194479        59.7148   46-B2
 151   0.0000       2.237035        60.8728   47-B2
 152   0.0000       2.332455        63.4693   30-B1
 153   0.0000       2.339824        63.6698   48-A1
 154   0.0000       2.421775        65.8998   49-A1
 155   0.0000       2.527521        68.7774   50-A1
 156   0.0000       2.549356        69.3715   48-B2
 157   0.0000       2.579084        70.1805   31-B1
 158   0.0000       2.603645        70.8488   51-A1
 159   0.0000       2.643403        71.9306   32-B1
 160   0.0000       2.644180        71.9518   30-A2
 161   0.0000       2.653911        72.2166   49-B2
 162   0.0000       2.659208        72.3607   52-A1
 163   0.0000       2.694817        73.3297   53-A1
 164   0.0000       2.734872        74.4197   33-B1
 165   0.0000       2.760352        75.1130   34-B1
 166   0.0000       2.770978        75.4021   50-B2
 167   0.0000       2.812017        76.5189   54-A1
 168   0.0000       2.833243        77.0965   55-A1
 169   0.0000       2.840294        77.2883   35-B1
 170   0.0000       2.850925        77.5776   36-B1
 171   0.0000       2.859455        77.8097   31-A2
 172   0.0000       2.876790        78.2814   56-A1
 173   0.0000       2.908301        79.1389   51-B2
 174   0.0000       2.914221        79.3000   37-B1
 175   0.0000       2.921292        79.4924   32-A2
 176   0.0000       2.937520        79.9340   57-A1
 177   0.0000       2.953685        80.3739   58-A1
 178   0.0000       2.994943        81.4965   38-B1
 179   0.0000       2.995561        81.5134   52-B2
 180   0.0000       3.002653        81.7063   33-A2
 181   0.0000       3.040090        82.7250   53-B2
 182   0.0000       3.052878        83.0730   34-A2
 183   0.0000       3.061194        83.2993   59-A1
 184   0.0000       3.081878        83.8622   39-B1
 185   0.0000       3.093001        84.1648   54-B2
 186   0.0000       3.105798        84.5131   60-A1
 187   0.0000       3.114860        84.7596   35-A2
 188   0.0000       3.121356        84.9364   40-B1
 189   0.0000       3.146654        85.6248   55-B2
 190   0.0000       3.173786        86.3631   36-A2
 191   0.0000       3.189788        86.7985   61-A1
 192   0.0000       3.206294        87.2477   41-B1
 193   0.0000       3.216312        87.5203   56-B2
 194   0.0000       3.255436        88.5849   62-A1
 195   0.0000       3.297249        89.7227   63-A1
 196   0.0000       3.298509        89.7570   42-B1
 197   0.0000       3.302825        89.8744   37-A2
 198   0.0000       3.318319        90.2960   57-B2
 199   0.0000       3.340732        90.9059   58-B2
 200   0.0000       3.369495        91.6886   64-A1
 201   0.0000       3.390908        92.2713   38-A2
 202   0.0000       3.391191        92.2790   59-B2
 203   0.0000       3.405133        92.6584   39-A2
 204   0.0000       3.414663        92.9177   43-B1
 205   0.0000       3.428310        93.2891   60-B2
 206   0.0000       3.450163        93.8837   65-A1
 207   0.0000       3.457532        94.0842   40-A2
 208   0.0000       3.457971        94.0962   66-A1
 209   0.0000       3.458911        94.1217   61-B2
 210   0.0000       3.476611        94.6034   41-A2
 211   0.0000       3.482103        94.7528   44-B1
 212   0.0000       3.520622        95.8010   62-B2
 213   0.0000       3.528455        96.0141   42-A2
 214   0.0000       3.555616        96.7532   63-B2
 215   0.0000       3.560260        96.8796   45-B1
 216   0.0000       3.568590        97.1063   67-A1
 217   0.0000       3.582686        97.4898   64-B2
 218   0.0000       3.591101        97.7188   68-A1
 219   0.0000       3.632433        98.8435   46-B1
 220   0.0000       3.643028        99.1318   65-B2
 221   0.0000       3.647844        99.2629   69-A1
 222   0.0000       3.685065       100.2757   70-A1
 223   0.0000       3.685455       100.2863   43-A2
 224   0.0000       3.697396       100.6113   47-B1
 225   0.0000       3.698507       100.6415   66-B2
 226   0.0000       3.719842       101.2220   71-A1
 227   0.0000       3.750071       102.0446   48-B1
 228   0.0000       3.766933       102.5035   44-A2
 229   0.0000       3.784414       102.9791   49-B1
 230   0.0000       3.786018       103.0228   67-B2
 231   0.0000       3.838152       104.4414   72-A1
 232   0.0000       3.842633       104.5634   45-A2
 233   0.0000       3.857118       104.9575   50-B1
 234   0.0000       3.864883       105.1688   73-A1
 235   0.0000       3.901387       106.1621   68-B2
 236   0.0000       3.918416       106.6255   46-A2
 237   0.0000       3.920531       106.6831   51-B1
 238   0.0000       3.950254       107.4919   69-B2
 239   0.0000       3.951415       107.5235   74-A1
 240   0.0000       3.968769       107.9957   47-A2
 241   0.0000       3.975722       108.1849   75-A1
 242   0.0000       3.997138       108.7677   52-B1
 243   0.0000       3.999517       108.8324   76-A1
 244   0.0000       4.006772       109.0298   70-B2
 245   0.0000       4.013384       109.2097   77-A1
 246   0.0000       4.039532       109.9213   71-B2
 247   0.0000       4.051189       110.2385   53-B1
 248   0.0000       4.068791       110.7174   48-A2
 249   0.0000       4.096366       111.4678   54-B1
 250   0.0000       4.115131       111.9784   49-A2
 251   0.0000       4.149995       112.9271   72-B2
 252   0.0000       4.157606       113.1342   50-A2
 253   0.0000       4.158720       113.1645   78-A1
 254   0.0000       4.179407       113.7275   79-A1
 255   0.0000       4.184433       113.8642   55-B1
 256   0.0000       4.196891       114.2032   73-B2
 257   0.0000       4.208197       114.5109   80-A1
 258   0.0000       4.219859       114.8282   51-A2
 259   0.0000       4.242118       115.4339   52-A2
 260   0.0000       4.242136       115.4344   74-B2
 261   0.0000       4.242589       115.4467   81-A1
 262   0.0000       4.258172       115.8708   56-B1
 263   0.0000       4.265775       116.0776   75-B2
 264   0.0000       4.280214       116.4705   76-B2
 265   0.0000       4.314569       117.4054   53-A2
 266   0.0000       4.331851       117.8756   82-A1
 267   0.0000       4.333355       117.9166   77-B2
 268   0.0000       4.338966       118.0693   57-B1
 269   0.0000       4.349032       118.3432   78-B2
 270   0.0000       4.385341       119.3312   83-A1
 271   0.0000       4.405578       119.8819   79-B2
 272   0.0000       4.407194       119.9258   54-A2
 273   0.0000       4.420919       120.2993   58-B1
 274   0.0000       4.424258       120.3902   55-A2
 275   0.0000       4.450426       121.1023   84-A1
 276   0.0000       4.466909       121.5508   85-A1
 277   0.0000       4.471008       121.6623   56-A2
 278   0.0000       4.477663       121.8434   59-B1
 279   0.0000       4.503749       122.5532   80-B2
 280   0.0000       4.511666       122.7687   86-A1
 281   0.0000       4.534268       123.3837   57-A2
 282   0.0000       4.538848       123.5083   60-B1
 283   0.0000       4.556399       123.9859   81-B2
 284   0.0000       4.595303       125.0445   87-A1
 285   0.0000       4.605406       125.3195   82-B2
 286   0.0000       4.639538       126.2482   61-B1
 287   0.0000       4.700011       127.8938   83-B2
 288   0.0000       4.730065       128.7116   88-A1
 289   0.0000       4.733236       128.7979   58-A2
 290   0.0000       4.749953       129.2528   62-B1
 291   0.0000       4.759722       129.5186   84-B2
 292   0.0000       4.783305       130.1604   59-A2
 293   0.0000       4.800202       130.6201   63-B1
 294   0.0000       4.847898       131.9180   60-A2
 295   0.0000       4.850486       131.9884   85-B2
 296   0.0000       4.860209       132.2530   89-A1
 297   0.0000       4.862713       132.3211   90-A1
 298   0.0000       4.889914       133.0613   86-B2
 299   0.0000       4.894719       133.1921   64-B1
 300   0.0000       4.920529       133.8944   87-B2
 301   0.0000       4.945999       134.5875   61-A2
 302   0.0000       4.978535       135.4728   91-A1
 303   0.0000       5.037641       137.0812   62-A2
 304   0.0000       5.054077       137.5284   88-B2
 305   0.0000       5.064063       137.8002   63-A2
 306   0.0000       5.083650       138.3331   92-A1
 307   0.0000       5.125575       139.4740   89-B2
 308   0.0000       5.133326       139.6849   65-B1
 309   0.0000       5.182542       141.0241   90-B2
 310   0.0000       5.258895       143.1018   91-B2
 311   0.0000       5.311094       144.5222   93-A1
 312   0.0000       5.329060       145.0111   66-B1
 313   0.0000       5.371854       146.1756   94-A1
 314   0.0000       5.391727       146.7163   64-A2
 315   0.0000       5.423938       147.5928   95-A1
 316   0.0000       5.431590       147.8011   92-B2
 317   0.0000       5.443907       148.1363   67-B1
 318   0.0000       5.459075       148.5490   93-B2
 319   0.0000       5.476105       149.0124   65-A2
 320   0.0000       5.485705       149.2736   94-B2
 321   0.0000       5.486261       149.2887   68-B1
 322   0.0000       5.554882       151.1560   66-A2
 323   0.0000       5.566795       151.4802   96-A1
 324   0.0000       5.598846       152.3523   67-A2
 325   0.0000       5.599194       152.3618   69-B1
 326   0.0000       5.654050       153.8545   97-A1
 327   0.0000       5.788385       157.5100   98-A1
 328   0.0000       5.814993       158.2340   95-B2
 329   0.0000       5.815132       158.2378   68-A2
 330   0.0000       5.819608       158.3596   99-A1
 331   0.0000       5.849618       159.1762   70-B1
 332   0.0000       5.880737       160.0230   69-A2
 333   0.0000       5.888482       160.2337   96-B2
 334   0.0000       6.015432       163.6882   97-B2
 335   0.0000       6.023728       163.9140  100-A1
 336   0.0000       6.034619       164.2103   71-B1
 337   0.0000       6.106770       166.1736   98-B2
 338   0.0000       6.145080       167.2161   70-A2
 339   0.0000       6.252933       170.1510  101-A1
 340   0.0000       6.278322       170.8418   99-B2
 341   0.0000       6.393725       173.9821   71-A2
 342   0.0000       6.453082       175.5973  100-B2
 343   0.0000       6.659076       181.2027  101-B2
 344   0.0000      10.766759       292.9784  102-A1
 345   0.0000      11.776349       320.4507   72-B1
 346   0.0000      11.785750       320.7065  103-A1
 347   0.0000      12.274482       334.0056  102-B2
 348   0.0000      13.009751       354.0133  103-B2
 349   0.0000      13.038671       354.8003  104-A1
 350   0.0000      13.160436       358.1137   72-A2
 351   0.0000      13.358598       363.5059  104-B2

                 SPIN DOWN ORBITALS
  NO   OCC          E(Eh)            E(eV)    Irrep 
   0   1.0000     -11.230116      -305.5870    1-A1
   1   1.0000     -11.230092      -305.5863    1-B1
   2   1.0000     -11.229698      -305.5756    1-B2
   3   1.0000     -11.229670      -305.5749    1-A2
   4   1.0000     -11.225061      -305.4494    2-A1
   5   1.0000     -11.224514      -305.4346    2-B2
   6   1.0000     -11.204418      -304.8877    3-B2
   7   1.0000     -11.204416      -304.8877    3-A1
   8   1.0000      -1.216660       -33.1070    4-A1
   9   1.0000      -1.023101       -27.8400    4-B2
  10   1.0000      -0.959876       -26.1195    2-B1
  11   1.0000      -0.914985       -24.8980    5-A1
  12   1.0000      -0.787780       -21.4366    2-A2
  13   1.0000      -0.771931       -21.0053    5-B2
  14   1.0000      -0.737459       -20.0673    6-A1
  15   1.0000      -0.698516       -19.0076    7-A1
  16   1.0000      -0.643846       -17.5199    6-B2
  17   1.0000      -0.610366       -16.6089    8-A1
  18   1.0000      -0.608960       -16.5706    7-B2
  19   1.0000      -0.572974       -15.5914    3-B1
  20   1.0000      -0.521621       -14.1940    4-B1
  21   1.0000      -0.497519       -13.5382    9-A1
  22   1.0000      -0.439970       -11.9722    3-A2
  23   1.0000      -0.422707       -11.5024    5-B1
  24   1.0000      -0.406023       -11.0484    8-B2
  25   1.0000      -0.402932       -10.9643   10-A1
  26   1.0000      -0.380412       -10.3515    4-A2
  27   0.0000       0.114405         3.1131    9-B2
  28   0.0000       0.131487         3.5779   11-A1
  29   0.0000       0.152669         4.1543   12-A1
  30   0.0000       0.164258         4.4697    6-B1
  31   0.0000       0.173520         4.7217   13-A1
  32   0.0000       0.190423         5.1817   10-B2
  33   0.0000       0.196276         5.3409   14-A1
  34   0.0000       0.201784         5.4908    5-A2
  35   0.0000       0.209207         5.6928   11-B2
  36   0.0000       0.231550         6.3008   12-B2
  37   0.0000       0.238415         6.4876   15-A1
  38   0.0000       0.243608         6.6289    7-B1
  39   0.0000       0.330350         8.9893   13-B2
  40   0.0000       0.349267         9.5040    6-A2
  41   0.0000       0.351812         9.5733   16-A1
  42   0.0000       0.354011         9.6331    7-A2
  43   0.0000       0.354967         9.6591    8-B1
  44   0.0000       0.361218         9.8292   14-B2
  45   0.0000       0.383700        10.4410    9-B1
  46   0.0000       0.397188        10.8080   17-A1
  47   0.0000       0.414591        11.2816   18-A1
  48   0.0000       0.424466        11.5503    8-A2
  49   0.0000       0.427868        11.6429   10-B1
  50   0.0000       0.448295        12.1987   15-B2
  51   0.0000       0.484377        13.1806   16-B2
  52   0.0000       0.502000        13.6601    9-A2
  53   0.0000       0.510855        13.9011   19-A1
  54   0.0000       0.524781        14.2800   20-A1
  55   0.0000       0.534906        14.5555   11-B1
  56   0.0000       0.548622        14.9288   17-B2
  57   0.0000       0.552517        15.0348   21-A1
  58   0.0000       0.591404        16.0929   18-B2
  59   0.0000       0.607605        16.5338   22-A1
  60   0.0000       0.609732        16.5917   23-A1
  61   0.0000       0.610930        16.6243   12-B1
  62   0.0000       0.611776        16.6473   10-A2
  63   0.0000       0.618718        16.8362   19-B2
  64   0.0000       0.628197        17.0941   20-B2
  65   0.0000       0.637368        17.3437   24-A1
  66   0.0000       0.637609        17.3502   21-B2
  67   0.0000       0.640451        17.4275   11-A2
  68   0.0000       0.641201        17.4480   13-B1
  69   0.0000       0.660531        17.9740   14-B1
  70   0.0000       0.664460        18.0809   22-B2
  71   0.0000       0.671209        18.2645   12-A2
  72   0.0000       0.678163        18.4537   25-A1
  73   0.0000       0.720876        19.6160   15-B1
  74   0.0000       0.740731        20.1563   13-A2
  75   0.0000       0.751522        20.4500   23-B2
  76   0.0000       0.755355        20.5543   26-A1
  77   0.0000       0.757758        20.6196   24-B2
  78   0.0000       0.799409        21.7530   27-A1
  79   0.0000       0.865174        23.5426   16-B1
  80   0.0000       0.873335        23.7646   25-B2
  81   0.0000       0.878676        23.9100   14-A2
  82   0.0000       0.911720        24.8092   26-B2
  83   0.0000       0.919313        25.0158   28-A1
  84   0.0000       0.965427        26.2706   29-A1
  85   0.0000       1.002868        27.2894   15-A2
  86   0.0000       1.030435        28.0396   30-A1
  87   0.0000       1.068171        29.0664   27-B2
  88   0.0000       1.093689        29.7608   16-A2
  89   0.0000       1.131233        30.7824   31-A1
  90   0.0000       1.137436        30.9512   28-B2
  91   0.0000       1.150901        31.3176   17-B1
  92   0.0000       1.156127        31.4598   18-B1
  93   0.0000       1.164692        31.6929   29-B2
  94   0.0000       1.170210        31.8430   32-A1
  95   0.0000       1.190425        32.3931   19-B1
  96   0.0000       1.199009        32.6267   30-B2
  97   0.0000       1.205190        32.7949   33-A1
  98   0.0000       1.220078        33.2000   17-A2
  99   0.0000       1.243843        33.8467   34-A1
 100   0.0000       1.244604        33.8674   20-B1
 101   0.0000       1.255805        34.1722   18-A2
 102   0.0000       1.262652        34.3585   31-B2
 103   0.0000       1.280559        34.8458   21-B1
 104   0.0000       1.282779        34.9062   32-B2
 105   0.0000       1.316008        35.8104   35-A1
 106   0.0000       1.321932        35.9716   22-B1
 107   0.0000       1.333936        36.2983   36-A1
 108   0.0000       1.336226        36.3606   33-B2
 109   0.0000       1.350134        36.7390   37-A1
 110   0.0000       1.378338        37.5065   23-B1
 111   0.0000       1.382846        37.6292   19-A2
 112   0.0000       1.392293        37.8862   34-B2
 113   0.0000       1.410932        38.3934   38-A1
 114   0.0000       1.412172        38.4272   20-A2
 115   0.0000       1.430535        38.9268   21-A2
 116   0.0000       1.435532        39.0628   24-B1
 117   0.0000       1.455756        39.6131   25-B1
 118   0.0000       1.462490        39.7964   39-A1
 119   0.0000       1.462826        39.8055   22-A2
 120   0.0000       1.478600        40.2348   35-B2
 121   0.0000       1.514434        41.2098   40-A1
 122   0.0000       1.517198        41.2851   36-B2
 123   0.0000       1.534648        41.7599   26-B1
 124   0.0000       1.542645        41.9775   23-A2
 125   0.0000       1.566032        42.6139   41-A1
 126   0.0000       1.570842        42.7448   37-B2
 127   0.0000       1.608616        43.7727   38-B2
 128   0.0000       1.612057        43.8663   42-A1
 129   0.0000       1.612351        43.8743   24-A2
 130   0.0000       1.617685        44.0194   27-B1
 131   0.0000       1.624809        44.2133   39-B2
 132   0.0000       1.637307        44.5534   40-B2
 133   0.0000       1.667880        45.3853   43-A1
 134   0.0000       1.701293        46.2945   44-A1
 135   0.0000       1.701739        46.3067   25-A2
 136   0.0000       1.745006        47.4840   28-B1
 137   0.0000       1.790303        48.7166   41-B2
 138   0.0000       1.855142        50.4810   45-A1
 139   0.0000       1.870546        50.9001   26-A2
 140   0.0000       1.874854        51.0174   46-A1
 141   0.0000       1.893495        51.5246   42-B2
 142   0.0000       1.895135        51.5692   29-B1
 143   0.0000       1.938944        52.7614   27-A2
 144   0.0000       1.947245        52.9872   43-B2
 145   0.0000       1.985892        54.0389   28-A2
 146   0.0000       2.026758        55.1509   44-B2
 147   0.0000       2.048862        55.7524   47-A1
 148   0.0000       2.079355        56.5821   29-A2
 149   0.0000       2.082324        56.6629   45-B2
 150   0.0000       2.203253        59.9536   46-B2
 151   0.0000       2.250876        61.2494   47-B2
 152   0.0000       2.334831        63.5340   30-B1
 153   0.0000       2.362941        64.2989   48-A1
 154   0.0000       2.427816        66.0642   49-A1
 155   0.0000       2.567167        69.8562   48-B2
 156   0.0000       2.572789        70.0091   50-A1
 157   0.0000       2.581566        70.2480   31-B1
 158   0.0000       2.607913        70.9649   51-A1
 159   0.0000       2.648383        72.0662   32-B1
 160   0.0000       2.650551        72.1252   30-A2
 161   0.0000       2.664565        72.5065   52-A1
 162   0.0000       2.701865        73.5215   49-B2
 163   0.0000       2.711483        73.7832   53-A1
 164   0.0000       2.746558        74.7377   33-B1
 165   0.0000       2.763647        75.2027   34-B1
 166   0.0000       2.782490        75.7154   50-B2
 167   0.0000       2.825553        76.8872   54-A1
 168   0.0000       2.840722        77.3000   55-A1
 169   0.0000       2.843298        77.3701   35-B1
 170   0.0000       2.857612        77.7596   36-B1
 171   0.0000       2.873311        78.1868   31-A2
 172   0.0000       2.886181        78.5370   56-A1
 173   0.0000       2.911932        79.2377   51-B2
 174   0.0000       2.920809        79.4793   37-B1
 175   0.0000       2.937049        79.9212   32-A2
 176   0.0000       2.942630        80.0730   57-A1
 177   0.0000       2.973191        80.9046   58-A1
 178   0.0000       3.000891        81.6584   38-B1
 179   0.0000       3.006803        81.8193   33-A2
 180   0.0000       3.009413        81.8903   52-B2
 181   0.0000       3.049533        82.9820   53-B2
 182   0.0000       3.060170        83.2715   34-A2
 183   0.0000       3.067522        83.4715   59-A1
 184   0.0000       3.085402        83.9580   39-B1
 185   0.0000       3.110991        84.6544   54-B2
 186   0.0000       3.113143        84.7129   60-A1
 187   0.0000       3.119276        84.8798   35-A2
 188   0.0000       3.127245        85.0967   40-B1
 189   0.0000       3.155668        85.8701   55-B2
 190   0.0000       3.184027        86.6418   36-A2
 191   0.0000       3.202956        87.1569   61-A1
 192   0.0000       3.222501        87.6887   41-B1
 193   0.0000       3.230225        87.8989   56-B2
 194   0.0000       3.287404        89.4548   62-A1
 195   0.0000       3.305174        89.9384   42-B1
 196   0.0000       3.306836        89.9836   37-A2
 197   0.0000       3.316473        90.2458   63-A1
 198   0.0000       3.323352        90.4330   57-B2
 199   0.0000       3.350098        91.1608   58-B2
 200   0.0000       3.380860        91.9979   64-A1
 201   0.0000       3.393004        92.3283   38-A2
 202   0.0000       3.401228        92.5521   59-B2
 203   0.0000       3.409632        92.7808   39-A2
 204   0.0000       3.429945        93.3336   43-B1
 205   0.0000       3.454936        94.0136   65-A1
 206   0.0000       3.455151        94.0194   60-B2
 207   0.0000       3.463480        94.2461   61-B2
 208   0.0000       3.463898        94.2575   40-A2
 209   0.0000       3.473197        94.5105   66-A1
 210   0.0000       3.497080        95.1604   41-A2
 211   0.0000       3.500754        95.2604   44-B1
 212   0.0000       3.523282        95.8734   62-B2
 213   0.0000       3.534965        96.1913   42-A2
 214   0.0000       3.564960        97.0075   63-B2
 215   0.0000       3.566220        97.0418   45-B1
 216   0.0000       3.579533        97.4040   67-A1
 217   0.0000       3.594203        97.8032   68-A1
 218   0.0000       3.594940        97.8233   64-B2
 219   0.0000       3.639063        99.0240   46-B1
 220   0.0000       3.653445        99.4153   65-B2
 221   0.0000       3.661018        99.6214   69-A1
 222   0.0000       3.690162       100.4144   70-A1
 223   0.0000       3.695523       100.5603   43-A2
 224   0.0000       3.700802       100.7040   47-B1
 225   0.0000       3.709302       100.9353   66-B2
 226   0.0000       3.727100       101.4195   71-A1
 227   0.0000       3.756397       102.2168   48-B1
 228   0.0000       3.769349       102.5692   44-A2
 229   0.0000       3.787607       103.0660   49-B1
 230   0.0000       3.789500       103.1175   67-B2
 231   0.0000       3.842173       104.5508   72-A1
 232   0.0000       3.844946       104.6263   45-A2
 233   0.0000       3.862578       105.1061   50-B1
 234   0.0000       3.870698       105.3270   73-A1
 235   0.0000       3.914668       106.5235   68-B2
 236   0.0000       3.921578       106.7116   46-A2
 237   0.0000       3.923930       106.7756   51-B1
 238   0.0000       3.956524       107.6625   74-A1
 239   0.0000       3.958981       107.7293   69-B2
 240   0.0000       3.973756       108.1314   47-A2
 241   0.0000       3.979321       108.2828   75-A1
 242   0.0000       3.999965       108.8446   52-B1
 243   0.0000       4.008833       109.0859   76-A1
 244   0.0000       4.009142       109.0943   70-B2
 245   0.0000       4.015366       109.2637   77-A1
 246   0.0000       4.043200       110.0211   71-B2
 247   0.0000       4.054848       110.3380   53-B1
 248   0.0000       4.072169       110.8093   48-A2
 249   0.0000       4.099516       111.5535   54-B1
 250   0.0000       4.116238       112.0085   49-A2
 251   0.0000       4.155435       113.0751   72-B2
 252   0.0000       4.162725       113.2735   78-A1
 253   0.0000       4.163815       113.3032   50-A2
 254   0.0000       4.187373       113.9442   79-A1
 255   0.0000       4.187691       113.9529   55-B1
 256   0.0000       4.201023       114.3156   73-B2
 257   0.0000       4.214299       114.6769   80-A1
 258   0.0000       4.224716       114.9604   51-A2
 259   0.0000       4.243598       115.4742   52-A2
 260   0.0000       4.243895       115.4823   74-B2
 261   0.0000       4.247075       115.5688   81-A1
 262   0.0000       4.260442       115.9325   56-B1
 263   0.0000       4.269643       116.1829   75-B2
 264   0.0000       4.289662       116.7276   76-B2
 265   0.0000       4.315804       117.4390   53-A2
 266   0.0000       4.336184       117.9936   82-A1
 267   0.0000       4.336345       117.9980   77-B2
 268   0.0000       4.340625       118.1144   57-B1
 269   0.0000       4.352793       118.4455   78-B2
 270   0.0000       4.388960       119.4297   83-A1
 271   0.0000       4.408023       119.9484   54-A2
 272   0.0000       4.412425       120.0682   79-B2
 273   0.0000       4.423969       120.3823   58-B1
 274   0.0000       4.428419       120.5034   55-A2
 275   0.0000       4.455533       121.2412   84-A1
 276   0.0000       4.468509       121.5943   85-A1
 277   0.0000       4.473559       121.7317   56-A2
 278   0.0000       4.483929       122.0139   59-B1
 279   0.0000       4.509239       122.7026   80-B2
 280   0.0000       4.518699       122.9601   86-A1
 281   0.0000       4.537293       123.4660   57-A2
 282   0.0000       4.539155       123.5167   60-B1
 283   0.0000       4.561110       124.1141   81-B2
 284   0.0000       4.598280       125.1256   87-A1
 285   0.0000       4.607940       125.3884   82-B2
 286   0.0000       4.648835       126.5012   61-B1
 287   0.0000       4.707323       128.0928   83-B2
 288   0.0000       4.732297       128.7723   88-A1
 289   0.0000       4.735155       128.8501   58-A2
 290   0.0000       4.751114       129.2844   62-B1
 291   0.0000       4.764861       129.6585   84-B2
 292   0.0000       4.785642       130.2239   59-A2
 293   0.0000       4.803423       130.7078   63-B1
 294   0.0000       4.852181       132.0345   85-B2
 295   0.0000       4.854121       132.0873   60-A2
 296   0.0000       4.863420       132.3404   89-A1
 297   0.0000       4.871800       132.5684   90-A1
 298   0.0000       4.895892       133.2240   86-B2
 299   0.0000       4.896951       133.2528   64-B1
 300   0.0000       4.925402       134.0270   87-B2
 301   0.0000       4.951406       134.7346   61-A2
 302   0.0000       4.979733       135.5054   91-A1
 303   0.0000       5.038950       137.1168   62-A2
 304   0.0000       5.056664       137.5988   88-B2
 305   0.0000       5.065467       137.8384   63-A2
 306   0.0000       5.089234       138.4851   92-A1
 307   0.0000       5.127074       139.5148   89-B2
 308   0.0000       5.134103       139.7060   65-B1
 309   0.0000       5.185194       141.0963   90-B2
 310   0.0000       5.268122       143.3529   91-B2
 311   0.0000       5.318547       144.7250   93-A1
 312   0.0000       5.331613       145.0806   66-B1
 313   0.0000       5.375156       146.2654   94-A1
 314   0.0000       5.395205       146.8110   64-A2
 315   0.0000       5.425699       147.6408   95-A1
 316   0.0000       5.436655       147.9389   92-B2
 317   0.0000       5.445399       148.1768   67-B1
 318   0.0000       5.461182       148.6063   93-B2
 319   0.0000       5.477555       149.0519   65-A2
 320   0.0000       5.487838       149.3317   94-B2
 321   0.0000       5.488457       149.3485   68-B1
 322   0.0000       5.558629       151.2580   66-A2
 323   0.0000       5.571360       151.6044   96-A1
 324   0.0000       5.600475       152.3967   67-A2
 325   0.0000       5.600807       152.4057   69-B1
 326   0.0000       5.656697       153.9265   97-A1
 327   0.0000       5.790439       157.5658   98-A1
 328   0.0000       5.816222       158.2675   68-A2
 329   0.0000       5.818111       158.3189   95-B2
 330   0.0000       5.823101       158.4546   99-A1
 331   0.0000       5.852581       159.2568   70-B1
 332   0.0000       5.883853       160.1078   69-A2
 333   0.0000       5.894195       160.3892   96-B2
 334   0.0000       6.017235       163.7373   97-B2
 335   0.0000       6.026757       163.9964  100-A1
 336   0.0000       6.037018       164.2756   71-B1
 337   0.0000       6.108551       166.2221   98-B2
 338   0.0000       6.147349       167.2779   70-A2
 339   0.0000       6.257440       170.2736  101-A1
 340   0.0000       6.281182       170.9196   99-B2
 341   0.0000       6.395242       174.0234   71-A2
 342   0.0000       6.456779       175.6979  100-B2
 343   0.0000       6.661490       181.2684  101-B2
 344   0.0000      10.775962       293.2288  102-A1
 345   0.0000      11.777270       320.4758   72-B1
 346   0.0000      11.790288       320.8300  103-A1
 347   0.0000      12.286089       334.3215  102-B2
 348   0.0000      13.017145       354.2145  103-B2
 349   0.0000      13.044826       354.9678  104-A1
 350   0.0000      13.161274       358.1365   72-A2
 351   0.0000      13.359790       363.5384  104-B2

                    ********************************
                    * MULLIKEN POPULATION ANALYSIS *
                    ********************************

--------------------------------------------
MULLIKEN ATOMIC CHARGES AND SPIN POPULATIONS
--------------------------------------------
   0 H :    0.126369    0.015480
   1 C :   -0.048580   -0.061813
   2 H :    0.126369    0.015480
   3 C :   -0.048580   -0.061813
   4 H :    0.153403   -0.047804
   5 C :   -0.269970    1.108061
   6 H :    0.153403   -0.047804
   7 C :   -0.269970    1.108061
   8 H :    0.136556   -0.001126
   9 C :   -0.175566    0.033535
  10 H :    0.136556   -0.001126
  11 C :   -0.175566    0.033535
  12 H :    0.126369    0.015480
  13 C :   -0.048580   -0.061813
  14 H :    0.126369    0.015480
  15 C :   -0.048580   -0.061813
Sum of atomic charges         :   -0.0000000
Sum of atomic spin populations:    2.0000000

-----------------------------------------------------
MULLIKEN REDUCED ORBITAL CHARGES AND SPIN POPULATIONS
-----------------------------------------------------
CHARGE
[...]
      dxz     :     0.007896
      dyz     :     0.009359
      dx2y2   :     0.000485
      dxy     :     0.000573
  5 C s       :     2.747925  s :     2.747925
      pz      :     0.942663  p :     2.694681
      px      :     0.938899
      py      :     0.813118
      dz2     :     0.141116  d :     0.398419
      dxz     :     0.091861
      dyz     :     0.043341
      dx2y2   :     0.059001
      dxy     :     0.063099
      f0      :     0.006493  f :     0.045893
      f+1     :     0.011192
      f-1     :     0.003712
      f+2     :     0.006962
      f-2     :     0.008820
      f+3     :     0.004737
      f-3     :     0.003977
  6 H s       :     0.861982  s :     0.861982
      pz      :     0.092095  p :     0.185935
      px      :     0.039876
      py      :     0.053964
      dz2     :     0.011929  d :     0.030242
      dxz     :     0.007896
      dyz     :     0.009359
      dx2y2   :     0.000485
      dxy     :     0.000573
  7 C s       :     2.747925  s :     2.747925
      pz      :     0.942663  p :     2.694681
      px      :     0.938899
      py      :     0.813118
      dz2     :     0.141116  d :     0.398419
      dxz     :     0.091861
      dyz     :     0.043341
      dx2y2   :     0.059001
      dxy     :     0.063099
      f0      :     0.006493  f :     0.045893
      f+1     :     0.011192
      f-1     :     0.003712
      f+2     :     0.006962
      f-2     :     0.008820
      f+3     :     0.004737
      f-3     :     0.003977
  8 H s       :     0.850117  s :     0.850117
      pz      :     0.068233  p :     0.174134
      px      :     0.045820
      py      :     0.060081
      dz2     :     0.007913  d :     0.029785
      dxz     :     0.006277
      dyz     :     0.008757
      dx2y2   :     0.003859
      dxy     :     0.002980
  9 C s       :     2.676599  s :     2.676599
      pz      :     0.910361  p :     2.698920
      px      :     0.875426
      py      :     0.913133
      dz2     :     0.089140  d :     0.499618
      dxz     :     0.095729
      dyz     :     0.130851
      dx2y2   :     0.100554
      dxy     :     0.083345
      f0      :     0.008732  f :     0.064505
      f+1     :     0.012729
      f-1     :     0.007630
      f+2     :     0.009693
      f-2     :     0.008216
      f+3     :     0.009541
      f-3     :     0.007965
 10 H s       :     0.850117  s :     0.850117
      pz      :     0.068233  p :     0.174134
      px      :     0.045820
      py      :     0.060081
      dz2     :     0.007913  d :     0.029785
      dxz     :     0.006277
      dyz     :     0.008757
      dx2y2   :     0.003859
      dxy     :     0.002980
 11 C s       :     2.676599  s :     2.676599
      pz      :     0.910361  p :     2.698920
      px      :     0.875426
      py      :     0.913133
      dz2     :     0.089140  d :     0.499618
      dxz     :     0.095729
      dyz     :     0.130851
      dx2y2   :     0.100554
      dxy     :     0.083345
      f0      :     0.008732  f :     0.064505
      f+1     :     0.012729
      f-1     :     0.007630
      f+2     :     0.009693
      f-2     :     0.008216
      f+3     :     0.009541
      f-3     :     0.007965
 12 H s       :     0.844417  s :     0.844417
      pz      :     0.043564  p :     0.171040
      px      :     0.075544
      py      :     0.051932
      dz2     :     0.003012  d :     0.029958
      dxz     :     0.007661
      dyz     :     0.001452
      dx2y2   :     0.008995
      dxy     :     0.008837
 13 C s       :     2.674738  s :     2.674738
      pz      :     0.902665  p :     2.726246
      px      :     0.941531
      py      :     0.882051
      dz2     :     0.101184  d :     0.512301
      dxz     :     0.092919
      dyz     :     0.083539
      dx2y2   :     0.129969
      dxy     :     0.104691
      f0      :     0.007023  f :     0.061922
      f+1     :     0.010668
      f-1     :     0.005600
      f+2     :     0.012236
      f-2     :     0.008805
      f+3     :     0.008788
      f-3     :     0.008802
 14 H s       :     0.844417  s :     0.844417
      pz      :     0.043564  p :     0.171040
      px      :     0.075544
      py      :     0.051932
      dz2     :     0.003012  d :     0.029958
      dxz     :     0.007661
      dyz     :     0.001452
      dx2y2   :     0.008995
      dxy     :     0.008837
 15 C s       :     2.674738  s :     2.674738
      pz      :     0.902665  p :     2.726246
      px      :     0.941531
      py      :     0.882051
      dz2     :     0.101184  d :     0.512301
      dxz     :     0.092919
      dyz     :     0.083539
      dx2y2   :     0.129969
      dxy     :     0.104691
      f0      :     0.007023  f :     0.061922
      f+1     :     0.010668
      f-1     :     0.005600
      f+2     :     0.012236
      f-2     :     0.008805
      f+3     :     0.008788
      f-3     :     0.008802

SPIN
  0 H s       :     0.008261  s :     0.008261
      pz      :    -0.000205  p :     0.001889
      px      :    -0.000368
      py      :     0.002462
      dz2     :     0.000005  d :     0.000294
      dxz     :    -0.000048
      dyz     :    -0.000000
      dx2y2   :     0.000163
      dxy     :     0.000174
  1 C s       :     0.004941  s :     0.004941
      pz      :    -0.002424  p :     0.025758
      px      :    -0.000144
      py      :     0.028326
      dz2     :     0.011126  d :     0.063524
      dxz     :     0.002458
      dyz     :     0.006388
      dx2y2   :     0.023901
      dxy     :     0.019651
      f0      :     0.000624  f :     0.007610
      f+1     :     0.001814
      f-1     :     0.000282
      f+2     :     0.001009
      f-2     :     0.001134
      f+3     :     0.001643
      f-3     :     0.001104
  2 H s       :     0.008261  s :     0.008261
      pz      :    -0.000205  p :     0.001889
      px      :    -0.000368
      py      :     0.002462
      dz2     :     0.000005  d :     0.000294
      dxz     :    -0.000048
      dyz     :    -0.000000
      dx2y2   :     0.000163
      dxy     :     0.000174
  3 C s       :     0.004941  s :     0.004941
      pz      :    -0.002424  p :     0.025758
      px      :    -0.000144
      py      :     0.028326
      dz2     :     0.011126  d :     0.063524
      dxz     :     0.002458
      dyz     :     0.006388
      dx2y2   :     0.023901
      dxy     :     0.019651
      f0      :     0.000624  f :     0.007610
      f+1     :     0.001814
      f-1     :     0.000282
      f+2     :     0.001009
      f-2     :     0.001134
      f+3     :     0.001643
      f-3     :     0.001104
  4 H s       :    -0.010459  s :    -0.010459
      pz      :     0.010783  p :     0.055509
      px      :     0.000305
      py      :     0.044420
      dz2     :     0.001340  d :     0.009132
      dxz     :     0.000208
      dyz     :     0.007235
      dx2y2   :     0.000320
      dxy     :     0.000029
  5 C s       :     0.034068  s :     0.034068
      pz      :     0.076683  p :     0.647967
      px      :     0.011340
      py      :     0.559944
      dz2     :     0.006947  d :     0.022397
      dxz     :     0.000282
      dyz     :     0.007537
      dx2y2   :     0.006624
      dxy     :     0.001006
      f0      :     0.000215  f :     0.001411
      f+1     :    -0.000009
      f-1     :     0.000027
      f+2     :     0.000846
      f-2     :    -0.000207
      f+3     :     0.000002
      f-3     :     0.000538
  6 H s       :    -0.010459  s :    -0.010459
      pz      :     0.010783  p :     0.055509
      px      :     0.000305
      py      :     0.044420
      dz2     :     0.001340  d :     0.009132
      dxz     :     0.000208
      dyz     :     0.007235
      dx2y2   :     0.000320
      dxy     :     0.000029
  7 C s       :     0.034068  s :     0.034068
      pz      :     0.076683  p :     0.647967
      px      :     0.011340
      py      :     0.559944
      dz2     :     0.006947  d :     0.022397
      dxz     :     0.000282
      dyz     :     0.007537
      dx2y2   :     0.006624
      dxy     :     0.001006
      f0      :     0.000215  f :     0.001411
      f+1     :    -0.000009
      f-1     :     0.000027
      f+2     :     0.000846
      f-2     :    -0.000207
      f+3     :     0.000002
      f-3     :     0.000538
  8 H s       :     0.001114  s :     0.001114
      pz      :     0.000951  p :     0.000510
      px      :    -0.000469
      py      :     0.000028
      dz2     :     0.000063  d :    -0.000003
      dxz     :    -0.000051
      dyz     :    -0.000004
      dx2y2   :     0.000019
      dxy     :    -0.000029
  9 C s       :     0.004233  s :     0.004233
      pz      :     0.006385  p :     0.005055
      px      :    -0.003937
      py      :     0.002608
      dz2     :     0.001289  d :     0.003731
      dxz     :     0.000392
      dyz     :     0.000517
      dx2y2   :     0.002038
      dxy     :    -0.000506
      f0      :     0.000011  f :     0.000781
      f+1     :    -0.000026
      f-1     :     0.000176
      f+2     :     0.000242
      f-2     :    -0.000046
      f+3     :    -0.000033
      f-3     :     0.000456
 10 H s       :     0.001114  s :     0.001114
      pz      :     0.000951  p :     0.000510
      px      :    -0.000469
      py      :     0.000028
      dz2     :     0.000063  d :    -0.000003
      dxz     :    -0.000051
      dyz     :    -0.000004
      dx2y2   :     0.000019
      dxy     :    -0.000029
 11 C s       :     0.004233  s :     0.004233
      pz      :     0.006385  p :     0.005055
      px      :    -0.003937
      py      :     0.002608
      dz2     :     0.001289  d :     0.003731
      dxz     :     0.000392
      dyz     :     0.000517
      dx2y2   :     0.002038
      dxy     :    -0.000506
      f0      :     0.000011  f :     0.000781
      f+1     :    -0.000026
      f-1     :     0.000176
      f+2     :     0.000242
      f-2     :    -0.000046
      f+3     :    -0.000033
      f-3     :     0.000456
 12 H s       :     0.008261  s :     0.008261
      pz      :    -0.000205  p :     0.001889
      px      :    -0.000368
      py      :     0.002462
      dz2     :     0.000005  d :     0.000294
      dxz     :    -0.000048
      dyz     :    -0.000000
      dx2y2   :     0.000163
      dxy     :     0.000174
 13 C s       :     0.004941  s :     0.004941
      pz      :    -0.002424  p :     0.025758
      px      :    -0.000144
      py      :     0.028326
      dz2     :     0.011126  d :     0.063524
      dxz     :     0.002458
      dyz     :     0.006388
      dx2y2   :     0.023901
      dxy     :     0.019651
      f0      :     0.000624  f :     0.007610
      f+1     :     0.001814
      f-1     :     0.000282
      f+2     :     0.001009
      f-2     :     0.001134
      f+3     :     0.001643
      f-3     :     0.001104
 14 H s       :     0.008261  s :     0.008261
      pz      :    -0.000205  p :     0.001889
      px      :    -0.000368
      py      :     0.002462
      dz2     :     0.000005  d :     0.000294
      dxz     :    -0.000048
      dyz     :    -0.000000
      dx2y2   :     0.000163
      dxy     :     0.000174
 15 C s       :     0.004941  s :     0.004941
      pz      :    -0.002424  p :     0.025758
      px      :    -0.000144
      py      :     0.028326
      dz2     :     0.011126  d :     0.063524
      dxz     :     0.002458
      dyz     :     0.006388
      dx2y2   :     0.023901
      dxy     :     0.019651
      f0      :     0.000624  f :     0.007610
      f+1     :     0.001814
      f-1     :     0.000282
      f+2     :     0.001009
      f-2     :     0.001134
      f+3     :     0.001643
      f-3     :     0.001104


                      *****************************
                      * MAYER POPULATION ANALYSIS *
                      *****************************

  NA   - Mulliken gross atomic population
  ZA   - Total nuclear charge
  QA   - Mulliken gross atomic charge
  VA   - Mayer's total valence
  BVA  - Mayer's bonded valence
  FA   - Mayer's free valence

  ATOM       NA         ZA         QA         VA         BVA        FA
  0 H      0.8551     1.0000     0.1449     0.9843     0.9284     0.0560
  1 C      6.0656     6.0000    -0.0656     3.9036     3.5585     0.3451
  2 H      0.8551     1.0000     0.1449     0.9843     0.9284     0.0560
  3 C      6.0656     6.0000    -0.0656     3.9036     3.5585     0.3451
  4 H      0.8321     1.0000     0.1679     0.9826     0.9286     0.0540
  5 C      6.2912     6.0000    -0.2912     3.8724     2.8804     0.9920
  6 H      0.8321     1.0000     0.1679     0.9826     0.9286     0.0540
  7 C      6.2912     6.0000    -0.2912     3.8724     2.8804     0.9920
  8 H      0.8471     1.0000     0.1529     0.9835     0.9281     0.0554
  9 C      6.1880     6.0000    -0.1880     3.8615     3.5095     0.3519
 10 H      0.8471     1.0000     0.1529     0.9835     0.9281     0.0554
 11 C      6.1880     6.0000    -0.1880     3.8615     3.5095     0.3519
 12 H      0.8551     1.0000     0.1449     0.9843     0.9284     0.0560
 13 C      6.0656     6.0000    -0.0656     3.9036     3.5585     0.3451
 14 H      0.8551     1.0000     0.1449     0.9843     0.9284     0.0560
 15 C      6.0656     6.0000    -0.0656     3.9036     3.5585     0.3451

  Mayer bond orders larger than 0.1
B(  0-H ,  1-C ) :   0.9060 B(  1-C ,  3-C ) :   0.8600 B(  1-C ,  5-C ) :   0.9405 
B(  1-C ,  9-C ) :   0.8903 B(  2-H ,  3-C ) :   0.9060 B(  3-C ,  7-C ) :   0.9405 
B(  3-C , 11-C ) :   0.8903 B(  4-H ,  5-C ) :   0.9100 B(  5-C , 13-C ) :   0.9405 
B(  6-H ,  7-C ) :   0.9100 B(  7-C , 15-C ) :   0.9405 B(  8-H ,  9-C ) :   0.8997 
B(  9-C , 11-C ) :   0.8446 B(  9-C , 13-C ) :   0.8903 B( 10-H , 11-C ) :   0.8997 
B( 11-C , 15-C ) :   0.8903 B( 12-H , 13-C ) :   0.9060 B( 13-C , 15-C ) :   0.8600 
B( 14-H , 15-C ) :   0.9060 


-------
TIMINGS
-------

Total time                :  352.674 sec
Integral trafo            :    2.000 sec (  0.6%)
FC preparation            :    1.124 sec (  0.3%)
I/O of integrals          :    0.016 sec (  0.0%)
K(i,j) Operators          :    3.081 sec (  0.9%)
T(i,j) pair energies      :    0.207 sec (  0.1%)
V-calculation             :    0.018 sec (  0.0%)
V**(-1/2)                 :    0.074 sec (  0.0%)
Gamma(ia|P)               :    3.121 sec (  0.9%)
Gamma-Trafo               :    0.490 sec (  0.1%)
D(virtual)                :    0.546 sec (  0.2%)
D(internal)               :    1.281 sec (  0.4%)
W(virtual)                :    0.647 sec (  0.2%)
W(internal)               :    1.131 sec (  0.3%)
L(virtual)                :    7.431 sec (  2.1%)
L(internal)               :    0.056 sec (  0.0%)
G(D)                      :   23.341 sec (  6.6%)
G(Z)                      :   22.626 sec (  6.4%)
Z-Vector Solution         :  181.667 sec ( 51.5%)
3-Index Derivative        :   13.029 sec (  3.7%)
2-Index Derivative        :    0.051 sec (  0.0%)
Separable Gradient        :   87.779 sec ( 24.9%)


---------------------------------------
MP2 TOTAL ENERGY:     -308.702961525 Eh
---------------------------------------

-----------------------------------
NORM OF THE MP2 GRADIENT:  0.000094
-----------------------------------

-------------------------   --------------------
FINAL SINGLE POINT ENERGY      -308.702961524783
-------------------------   --------------------

                                *** OPTIMIZATION RUN DONE ***

                            ***************************************
                            *     ORCA property calculations      *
                            ***************************************

                                    ---------------------
                                    Active property flags
                                    ---------------------
   (+) Dipole Moment


------------------------------------------------------------------------------
                       ORCA ELECTRIC PROPERTIES CALCULATION
------------------------------------------------------------------------------

Dipole Moment Calculation                       ... on
Quadrupole Moment Calculation                   ... off
Polarizability Calculation                      ... off
GBWName                                         ... /home/vladimir/git/private/ORCA/C8H8/T-cubane-1/MP2/cc-pVTZ/./cubane.gbw
Electron density file                           ... /home/vladimir/git/private/ORCA/C8H8/T-cubane-1/MP2/cc-pVTZ/./cubane.scfp.tmp

-------------
DIPOLE MOMENT
-------------
                                X             Y             Z
Electronic contribution:     -0.00000       0.00000      -0.17355
Nuclear contribution   :      0.00000      -0.00000       0.12028
                        -----------------------------------------
Total Dipole Moment    :     -0.00000      -0.00000      -0.05327
                        -----------------------------------------
Magnitude (a.u.)       :      0.05327
Magnitude (Debye)      :      0.13539


                         *** MP2 UNRELAXED DENSITY ***

------------------------------------------------------------------------------
                       ORCA ELECTRIC PROPERTIES CALCULATION
------------------------------------------------------------------------------

Dipole Moment Calculation                       ... on
Quadrupole Moment Calculation                   ... off
Polarizability Calculation                      ... off
GBWName                                         ... /home/vladimir/git/private/ORCA/C8H8/T-cubane-1/MP2/cc-pVTZ/./cubane.gbw
Electron density file                           ... /home/vladimir/git/private/ORCA/C8H8/T-cubane-1/MP2/cc-pVTZ/./cubane.pmp2ur

-------------
DIPOLE MOMENT
-------------
                                X             Y             Z
Electronic contribution:     -0.00000       0.00000      -0.17641
Nuclear contribution   :      0.00000      -0.00000       0.12028
                        -----------------------------------------
Total Dipole Moment    :     -0.00000      -0.00000      -0.05613
                        -----------------------------------------
Magnitude (a.u.)       :      0.05613
Magnitude (Debye)      :      0.14266


                           *** MP2 RELAXED DENSITY ***

------------------------------------------------------------------------------
                       ORCA ELECTRIC PROPERTIES CALCULATION
------------------------------------------------------------------------------

Dipole Moment Calculation                       ... on
Quadrupole Moment Calculation                   ... off
Polarizability Calculation                      ... off
GBWName                                         ... /home/vladimir/git/private/ORCA/C8H8/T-cubane-1/MP2/cc-pVTZ/./cubane.gbw
Electron density file                           ... /home/vladimir/git/private/ORCA/C8H8/T-cubane-1/MP2/cc-pVTZ/./cubane.pmp2re

-------------
DIPOLE MOMENT
-------------
                                X             Y             Z
Electronic contribution:     -0.00000      -0.00000      -0.18601
Nuclear contribution   :      0.00000      -0.00000       0.12028
                        -----------------------------------------
Total Dipole Moment    :     -0.00000      -0.00000      -0.06573
                        -----------------------------------------
Magnitude (a.u.)       :      0.06573
Magnitude (Debye)      :      0.16707


Timings for individual modules:

Sum of individual times         ...     1481.901 sec (=  24.698 min)
GTO integral calculation        ...        1.669 sec (=   0.028 min)   0.1 %
SCF iterations                  ...      417.594 sec (=   6.960 min)  28.2 %
MP2 module                      ...     1062.522 sec (=  17.709 min)  71.7 %
Geometry relaxation             ...        0.115 sec (=   0.002 min)   0.0 %
                             ****ORCA TERMINATED NORMALLY****
TOTAL RUN TIME: 0 days 0 hours 24 minutes 42 seconds 531 msec
