 argument  1 = cubane.nw
                                         
                                         


              Northwest Computational Chemistry Package (NWChem) 6.5
              ------------------------------------------------------


                    Environmental Molecular Sciences Laboratory
                       Pacific Northwest National Laboratory
                                Richland, WA 99352

                              Copyright (c) 1994-2014
                       Pacific Northwest National Laboratory
                            Battelle Memorial Institute

             NWChem is an open-source computational chemistry package
                        distributed under the terms of the
                      Educational Community License (ECL) 2.0
             A copy of the license is included with this distribution
                              in the LICENSE.TXT file

                                  ACKNOWLEDGMENT
                                  --------------

            This software and its documentation were developed at the
            EMSL at Pacific Northwest National Laboratory, a multiprogram
            national laboratory, operated for the U.S. Department of Energy
            by Battelle under Contract Number DE-AC05-76RL01830. Support
            for this work was provided by the Department of Energy Office
            of Biological and Environmental Research, Office of Basic
            Energy Sciences, and the Office of Advanced Scientific Computing.


           Job information
           ---------------

    hostname        = kbob-G41MT-S2
    program         = nwchem
    date            = Sun Oct 19 19:16:51 2014

    compiled        = Ср._сент._17_22:58:30_2014
    source          = /opt/Nwchem-6.5.revision26243-src.2014-09-10
    nwchem branch   = 6.5
    nwchem revision = 26243
    ga revision     = 10506
    input           = cubane.nw
    prefix          = cubane.
    data base       = ./cubane.db
    status          = startup
    nproc           =        2
    time left       =     -1s



           Memory information
           ------------------

    heap     =   63211004 doubles =    482.3 Mbytes
    stack    =   63211009 doubles =    482.3 Mbytes
    global   =  126422016 doubles =    964.5 Mbytes (distinct from heap & stack)
    total    =  252844029 doubles =   1929.0 Mbytes
    verify   = yes
    hardfail = no 


           Directory information
           ---------------------

  0 permanent = .
  0 scratch   = .




                                NWChem Input Module
                                -------------------


                     cubane HF/def2-TZVP geometry optimization
                     -----------------------------------------

 Scaling coordinates for geometry "geometry" by  1.889725989
 (inverse scale =  0.529177249)

 Turning off AUTOSYM since
 SYMMETRY directive was detected!


          ------
          auto-z
          ------


                             Geometry "geometry" -> ""
                             -------------------------

 Output coordinates in angstroms (scale by  1.889725989 to convert to a.u.)

  No.       Tag          Charge          X              Y              Z
 ---- ---------------- ---------- -------------- -------------- --------------
    1 H                    1.0000     1.40173963     1.40173963     1.40173963
    2 H                    1.0000    -1.40173963    -1.40173963     1.40173963
    3 H                    1.0000    -1.40173963     1.40173963    -1.40173963
    4 H                    1.0000     1.40173963    -1.40173963    -1.40173963
    5 H                    1.0000     1.40173963     1.40173963    -1.40173963
    6 H                    1.0000    -1.40173963    -1.40173963    -1.40173963
    7 H                    1.0000     1.40173963    -1.40173963     1.40173963
    8 H                    1.0000    -1.40173963     1.40173963     1.40173963
    9 C                    6.0000     0.77867761     0.77867761     0.77867761
   10 C                    6.0000    -0.77867761    -0.77867761     0.77867761
   11 C                    6.0000    -0.77867761     0.77867761    -0.77867761
   12 C                    6.0000     0.77867761    -0.77867761    -0.77867761
   13 C                    6.0000     0.77867761     0.77867761    -0.77867761
   14 C                    6.0000    -0.77867761    -0.77867761    -0.77867761
   15 C                    6.0000     0.77867761    -0.77867761     0.77867761
   16 C                    6.0000    -0.77867761     0.77867761     0.77867761

      Atomic Mass 
      ----------- 

      H                  1.007825
      C                 12.000000


 Effective nuclear repulsion energy (a.u.)     370.0267138050

            Nuclear Dipole moment (a.u.) 
            ----------------------------
        X                 Y               Z
 ---------------- ---------------- ----------------
     0.0000000000     0.0000000000     0.0000000000

      Symmetry information
      --------------------

 Group name              Oh       
 Group number             44
 Group order              48
 No. of unique centers     2

      Symmetry unique atoms

     1    9



                                Z-matrix (autoz)
                                -------- 

 Units are Angstrom for bonds and degrees for angles

      Type          Name      I     J     K     L     M      Value
      ----------- --------  ----- ----- ----- ----- ----- ----------
    1 Stretch                  1     9                       1.07918
    2 Stretch                  2    10                       1.07918
    3 Stretch                  3    11                       1.07918
    4 Stretch                  4    12                       1.07918
    5 Stretch                  5    13                       1.07918
    6 Stretch                  6    14                       1.07918
    7 Stretch                  7    15                       1.07918
    8 Stretch                  8    16                       1.07918
    9 Stretch                  9    13                       1.55736
   10 Stretch                  9    15                       1.55736
   11 Stretch                  9    16                       1.55736
   12 Stretch                 10    14                       1.55736
   13 Stretch                 10    15                       1.55736
   14 Stretch                 10    16                       1.55736
   15 Stretch                 11    13                       1.55736
   16 Stretch                 11    14                       1.55736
   17 Stretch                 11    16                       1.55736
   18 Stretch                 12    13                       1.55736
   19 Stretch                 12    14                       1.55736
   20 Stretch                 12    15                       1.55736
   21 Bend                     1     9    13               125.26439
   22 Bend                     1     9    15               125.26439
   23 Bend                     1     9    16               125.26439
   24 Bend                     2    10    14               125.26439
   25 Bend                     2    10    15               125.26439
   26 Bend                     2    10    16               125.26439
   27 Bend                     3    11    13               125.26439
   28 Bend                     3    11    14               125.26439
   29 Bend                     3    11    16               125.26439
   30 Bend                     4    12    13               125.26439
   31 Bend                     4    12    14               125.26439
   32 Bend                     4    12    15               125.26439
   33 Bend                     5    13     9               125.26439
   34 Bend                     5    13    11               125.26439
   35 Bend                     5    13    12               125.26439
   36 Bend                     6    14    10               125.26439
   37 Bend                     6    14    11               125.26439
   38 Bend                     6    14    12               125.26439
   39 Bend                     7    15     9               125.26439
   40 Bend                     7    15    10               125.26439
   41 Bend                     7    15    12               125.26439
   42 Bend                     8    16     9               125.26439
   43 Bend                     8    16    10               125.26439
   44 Bend                     8    16    11               125.26439
   45 Bend                     9    13    11                90.00000
   46 Bend                     9    13    12                90.00000
   47 Bend                     9    15    10                90.00000
   48 Bend                     9    15    12                90.00000
   49 Bend                     9    16    10                90.00000
   50 Bend                     9    16    11                90.00000
   51 Bend                    10    14    11                90.00000
   52 Bend                    10    14    12                90.00000
   53 Bend                    10    15    12                90.00000
   54 Bend                    10    16    11                90.00000
   55 Bend                    11    13    12                90.00000
   56 Bend                    11    14    12                90.00000
   57 Bend                    13     9    15                90.00000
   58 Bend                    13     9    16                90.00000
   59 Bend                    13    11    14                90.00000
   60 Bend                    13    11    16                90.00000
   61 Bend                    13    12    14                90.00000
   62 Bend                    13    12    15                90.00000
   63 Bend                    14    10    15                90.00000
   64 Bend                    14    10    16                90.00000
   65 Bend                    14    11    16                90.00000
   66 Bend                    14    12    15                90.00000
   67 Bend                    15     9    16                90.00000
   68 Bend                    15    10    16                90.00000
   69 Torsion                  1     9    13     5           0.00000
   70 Torsion                  1     9    13    11        -135.00000
   71 Torsion                  1     9    13    12         135.00000
   72 Torsion                  1     9    15     7           0.00000
   73 Torsion                  1     9    15    10         135.00000
   74 Torsion                  1     9    15    12        -135.00000
   75 Torsion                  1     9    16     8           0.00000
   76 Torsion                  1     9    16    10        -135.00000
   77 Torsion                  1     9    16    11         135.00000
   78 Torsion                  2    10    14     6           0.00000
   79 Torsion                  2    10    14    11         135.00000
   80 Torsion                  2    10    14    12        -135.00000
   81 Torsion                  2    10    15     7           0.00000
   82 Torsion                  2    10    15     9        -135.00000
   83 Torsion                  2    10    15    12         135.00000
   84 Torsion                  2    10    16     8           0.00000
   85 Torsion                  2    10    16     9         135.00000
   86 Torsion                  2    10    16    11        -135.00000
   87 Torsion                  3    11    13     5           0.00000
   88 Torsion                  3    11    13     9         135.00000
   89 Torsion                  3    11    13    12        -135.00000
   90 Torsion                  3    11    14     6           0.00000
   91 Torsion                  3    11    14    10        -135.00000
   92 Torsion                  3    11    14    12         135.00000
   93 Torsion                  3    11    16     8           0.00000
   94 Torsion                  3    11    16     9        -135.00000
   95 Torsion                  3    11    16    10         135.00000
   96 Torsion                  4    12    13     5           0.00000
   97 Torsion                  4    12    13     9        -135.00000
   98 Torsion                  4    12    13    11         135.00000
   99 Torsion                  4    12    14     6           0.00000
  100 Torsion                  4    12    14    10         135.00000
  101 Torsion                  4    12    14    11        -135.00000
  102 Torsion                  4    12    15     7           0.00000
  103 Torsion                  4    12    15     9         135.00000
  104 Torsion                  4    12    15    10        -135.00000
  105 Torsion                  5    13     9    15        -135.00000
  106 Torsion                  5    13     9    16         135.00000
  107 Torsion                  5    13    11    14         135.00000
  108 Torsion                  5    13    11    16        -135.00000
  109 Torsion                  5    13    12    14        -135.00000
  110 Torsion                  5    13    12    15         135.00000
  111 Torsion                  6    14    10    15         135.00000
  112 Torsion                  6    14    10    16        -135.00000
  113 Torsion                  6    14    11    13        -135.00000
  114 Torsion                  6    14    11    16         135.00000
  115 Torsion                  6    14    12    13         135.00000
  116 Torsion                  6    14    12    15        -135.00000
  117 Torsion                  7    15     9    13         135.00000
  118 Torsion                  7    15     9    16        -135.00000
  119 Torsion                  7    15    10    14        -135.00000
  120 Torsion                  7    15    10    16         135.00000
  121 Torsion                  7    15    12    13        -135.00000
  122 Torsion                  7    15    12    14         135.00000
  123 Torsion                  8    16     9    13        -135.00000
  124 Torsion                  8    16     9    15         135.00000
  125 Torsion                  8    16    10    14         135.00000
  126 Torsion                  8    16    10    15        -135.00000
  127 Torsion                  8    16    11    13         135.00000
  128 Torsion                  8    16    11    14        -135.00000
  129 Torsion                  9    13    11    14         -90.00000
  130 Torsion                  9    13    11    16           0.00000
  131 Torsion                  9    13    12    14          90.00000
  132 Torsion                  9    13    12    15           0.00000
  133 Torsion                  9    15    10    14          90.00000
  134 Torsion                  9    15    10    16           0.00000
  135 Torsion                  9    15    12    13           0.00000
  136 Torsion                  9    15    12    14         -90.00000
  137 Torsion                  9    16    10    14         -90.00000
  138 Torsion                  9    16    10    15           0.00000
  139 Torsion                  9    16    11    13           0.00000
  140 Torsion                  9    16    11    14          90.00000
  141 Torsion                 10    14    11    13          90.00000
  142 Torsion                 10    14    11    16           0.00000
  143 Torsion                 10    14    12    13         -90.00000
  144 Torsion                 10    14    12    15           0.00000
  145 Torsion                 10    15     9    13         -90.00000
  146 Torsion                 10    15     9    16           0.00000
  147 Torsion                 10    15    12    13          90.00000
  148 Torsion                 10    15    12    14           0.00000
  149 Torsion                 10    16     9    13          90.00000
  150 Torsion                 10    16     9    15           0.00000
  151 Torsion                 10    16    11    13         -90.00000
  152 Torsion                 10    16    11    14           0.00000
  153 Torsion                 11    13     9    15          90.00000
  154 Torsion                 11    13     9    16           0.00000
  155 Torsion                 11    13    12    14           0.00000
  156 Torsion                 11    13    12    15         -90.00000
  157 Torsion                 11    14    10    15         -90.00000
  158 Torsion                 11    14    10    16           0.00000
  159 Torsion                 11    14    12    13           0.00000
  160 Torsion                 11    14    12    15          90.00000
  161 Torsion                 11    16     9    13           0.00000
  162 Torsion                 11    16     9    15         -90.00000
  163 Torsion                 11    16    10    14           0.00000
  164 Torsion                 11    16    10    15          90.00000
  165 Torsion                 12    13     9    15           0.00000
  166 Torsion                 12    13     9    16         -90.00000
  167 Torsion                 12    13    11    14           0.00000
  168 Torsion                 12    13    11    16          90.00000
  169 Torsion                 12    14    10    15           0.00000
  170 Torsion                 12    14    10    16          90.00000
  171 Torsion                 12    14    11    13           0.00000
  172 Torsion                 12    14    11    16         -90.00000
  173 Torsion                 12    15     9    13           0.00000
  174 Torsion                 12    15     9    16          90.00000
  175 Torsion                 12    15    10    14           0.00000
  176 Torsion                 12    15    10    16         -90.00000


            XYZ format geometry
            -------------------
    16
 geometry
 H                     1.40173963     1.40173963     1.40173963
 H                    -1.40173963    -1.40173963     1.40173963
 H                    -1.40173963     1.40173963    -1.40173963
 H                     1.40173963    -1.40173963    -1.40173963
 H                     1.40173963     1.40173963    -1.40173963
 H                    -1.40173963    -1.40173963    -1.40173963
 H                     1.40173963    -1.40173963     1.40173963
 H                    -1.40173963     1.40173963     1.40173963
 C                     0.77867761     0.77867761     0.77867761
 C                    -0.77867761    -0.77867761     0.77867761
 C                    -0.77867761     0.77867761    -0.77867761
 C                     0.77867761    -0.77867761    -0.77867761
 C                     0.77867761     0.77867761    -0.77867761
 C                    -0.77867761    -0.77867761    -0.77867761
 C                     0.77867761    -0.77867761     0.77867761
 C                    -0.77867761     0.77867761     0.77867761

 ==============================================================================
                                internuclear distances
 ------------------------------------------------------------------------------
       center one      |      center two      | atomic units |  angstroms
 ------------------------------------------------------------------------------
    9 C                |   1 H                |     2.03935  |     1.07918
   10 C                |   2 H                |     2.03935  |     1.07918
   11 C                |   3 H                |     2.03935  |     1.07918
   12 C                |   4 H                |     2.03935  |     1.07918
   13 C                |   5 H                |     2.03935  |     1.07918
   13 C                |   9 C                |     2.94297  |     1.55736
   13 C                |  11 C                |     2.94297  |     1.55736
   13 C                |  12 C                |     2.94297  |     1.55736
   14 C                |   6 H                |     2.03935  |     1.07918
   14 C                |  10 C                |     2.94297  |     1.55736
   14 C                |  11 C                |     2.94297  |     1.55736
   14 C                |  12 C                |     2.94297  |     1.55736
   15 C                |   7 H                |     2.03935  |     1.07918
   15 C                |   9 C                |     2.94297  |     1.55736
   15 C                |  10 C                |     2.94297  |     1.55736
   15 C                |  12 C                |     2.94297  |     1.55736
   16 C                |   8 H                |     2.03935  |     1.07918
   16 C                |   9 C                |     2.94297  |     1.55736
   16 C                |  10 C                |     2.94297  |     1.55736
   16 C                |  11 C                |     2.94297  |     1.55736
 ------------------------------------------------------------------------------
                         number of included internuclear distances:         20
 ==============================================================================



 ==============================================================================
                                 internuclear angles
 ------------------------------------------------------------------------------
        center 1       |       center 2       |       center 3       |  degrees
 ------------------------------------------------------------------------------
    1 H                |   9 C                |  13 C                |   125.26
    1 H                |   9 C                |  15 C                |   125.26
    1 H                |   9 C                |  16 C                |   125.26
   13 C                |   9 C                |  15 C                |    90.00
   13 C                |   9 C                |  16 C                |    90.00
   15 C                |   9 C                |  16 C                |    90.00
    2 H                |  10 C                |  14 C                |   125.26
    2 H                |  10 C                |  15 C                |   125.26
    2 H                |  10 C                |  16 C                |   125.26
   14 C                |  10 C                |  15 C                |    90.00
   14 C                |  10 C                |  16 C                |    90.00
   15 C                |  10 C                |  16 C                |    90.00
    3 H                |  11 C                |  13 C                |   125.26
    3 H                |  11 C                |  14 C                |   125.26
    3 H                |  11 C                |  16 C                |   125.26
   13 C                |  11 C                |  14 C                |    90.00
   13 C                |  11 C                |  16 C                |    90.00
   14 C                |  11 C                |  16 C                |    90.00
    4 H                |  12 C                |  13 C                |   125.26
    4 H                |  12 C                |  14 C                |   125.26
    4 H                |  12 C                |  15 C                |   125.26
   13 C                |  12 C                |  14 C                |    90.00
   13 C                |  12 C                |  15 C                |    90.00
   14 C                |  12 C                |  15 C                |    90.00
    5 H                |  13 C                |   9 C                |   125.26
    5 H                |  13 C                |  11 C                |   125.26
    5 H                |  13 C                |  12 C                |   125.26
    9 C                |  13 C                |  11 C                |    90.00
    9 C                |  13 C                |  12 C                |    90.00
   11 C                |  13 C                |  12 C                |    90.00
    6 H                |  14 C                |  10 C                |   125.26
    6 H                |  14 C                |  11 C                |   125.26
    6 H                |  14 C                |  12 C                |   125.26
   10 C                |  14 C                |  11 C                |    90.00
   10 C                |  14 C                |  12 C                |    90.00
   11 C                |  14 C                |  12 C                |    90.00
    7 H                |  15 C                |   9 C                |   125.26
    7 H                |  15 C                |  10 C                |   125.26
    7 H                |  15 C                |  12 C                |   125.26
    9 C                |  15 C                |  10 C                |    90.00
    9 C                |  15 C                |  12 C                |    90.00
   10 C                |  15 C                |  12 C                |    90.00
    8 H                |  16 C                |   9 C                |   125.26
    8 H                |  16 C                |  10 C                |   125.26
    8 H                |  16 C                |  11 C                |   125.26
    9 C                |  16 C                |  10 C                |    90.00
    9 C                |  16 C                |  11 C                |    90.00
   10 C                |  16 C                |  11 C                |    90.00
 ------------------------------------------------------------------------------
                            number of included internuclear angles:         48
 ==============================================================================



  library name resolved from: environment
  library file name is: </opt/Nwchem-6.5.revision26243-src.2014-09-10/src/basis/libraries/>
  
                      Basis "ao basis" -> "" (spherical)
                      -----
  H (Hydrogen)
  ------------
            Exponent  Coefficients 
       -------------- ---------------------------------------------------------
  1 S  3.40613410E+01  0.006025
  1 S  5.12357460E+00  0.045021
  1 S  1.16466260E+00  0.201897

  2 S  3.27230410E-01  1.000000

  3 S  1.03072410E-01  1.000000

  4 P  8.00000000E-01  1.000000

  C (Carbon)
  ----------
            Exponent  Coefficients 
       -------------- ---------------------------------------------------------
  1 S  1.35753497E+04  0.000222
  1 S  2.03523337E+03  0.001723
  1 S  4.63225624E+02  0.008926
  1 S  1.31200196E+02  0.035728
  1 S  4.28530159E+01  0.110763
  1 S  1.55841858E+01  0.242956

  2 S  6.20671385E+00  0.414403
  2 S  2.57648965E+00  0.237450

  3 S  5.76963394E-01  1.000000

  4 S  2.29728314E-01  1.000000

  5 S  9.51644400E-02  1.000000

  6 P  3.46972322E+01  0.005333
  6 P  7.95826228E+00  0.035864
  6 P  2.37808269E+00  0.142159
  6 P  8.14332082E-01  0.342705

  7 P  2.88875473E-01  1.000000

  8 P  1.00568237E-01  1.000000

  9 D  1.09700000E+00  1.000000

 10 D  3.18000000E-01  1.000000

 11 F  7.61000000E-01  1.000000



 Summary of "ao basis" -> "" (spherical)
 ------------------------------------------------------------------------------
       Tag                 Description            Shells   Functions and Types
 ---------------- ------------------------------  ------  ---------------------
 H                         def2-TZVP                 4        6   3s1p
 C                         def2-TZVP                11       31   5s3p2d1f




                           NWChem Geometry Optimization
                           ----------------------------




                     cubane HF/def2-TZVP geometry optimization


 maximum gradient threshold         (gmax) =   0.000450
 rms gradient threshold             (grms) =   0.000300
 maximum cartesian step threshold   (xmax) =   0.001800
 rms cartesian step threshold       (xrms) =   0.001200
 fixed trust radius                (trust) =   0.300000
 maximum step size to saddle      (sadstp) =   0.100000
 energy precision                  (eprec) =   1.0D-07
 maximum number of steps          (nptopt) =   20
 initial hessian option           (inhess) =    0
 line search option               (linopt) =    1
 hessian update option            (modupd) =    1
 saddle point option              (modsad) =    0
 initial eigen-mode to follow     (moddir) =    0
 initial variable to follow       (vardir) =    0
 follow first negative mode     (firstneg) =    T
 apply conjugacy                    (opcg) =    F
 source of zmatrix                         =   autoz   


          -------------------
          Energy Minimization
          -------------------


 Names of Z-matrix variables 
    1              2              3              4              5         
    6              7              8              9             10         
   11             12             13             14             15         
   16             17             18             19             20         
   21             22             23             24             25         
   26             27             28             29             30         
   31             32             33             34             35         
   36             37             38             39             40         
   41             42             43             44             45         
   46             47             48             49             50         
   51             52             53             54             55         
   56             57             58             59             60         
   61             62             63             64             65         
   66             67             68             69             70         
   71             72             73             74             75         
   76             77             78             79             80         
   81             82             83             84             85         
   86             87             88             89             90         
   91             92             93             94             95         
   96             97             98             99            100         
  101            102            103            104            105         
  106            107            108            109            110         
  111            112            113            114            115         
  116            117            118            119            120         
  121            122            123            124            125         
  126            127            128            129            130         
  131            132            133            134            135         
  136            137            138            139            140         
  141            142            143            144            145         
  146            147            148            149            150         
  151            152            153            154            155         
  156            157            158            159            160         
  161            162            163            164            165         
  166            167            168            169            170         
  171            172            173            174            175         
  176         

 Variables with the same non-blank name are constrained to be equal


 Using diagonal initial Hessian 
 Scaling for Hessian diagonals: bonds = 1.00  angles = 0.25  torsions = 0.10

          --------
          Step   0
          --------


                         Geometry "geometry" -> "geometry"
                         ---------------------------------

 Output coordinates in angstroms (scale by  1.889725989 to convert to a.u.)

  No.       Tag          Charge          X              Y              Z
 ---- ---------------- ---------- -------------- -------------- --------------
    1 H                    1.0000     1.40173963     1.40173963     1.40173963
    2 H                    1.0000    -1.40173963    -1.40173963     1.40173963
    3 H                    1.0000    -1.40173963     1.40173963    -1.40173963
    4 H                    1.0000     1.40173963    -1.40173963    -1.40173963
    5 H                    1.0000     1.40173963     1.40173963    -1.40173963
    6 H                    1.0000    -1.40173963    -1.40173963    -1.40173963
    7 H                    1.0000     1.40173963    -1.40173963     1.40173963
    8 H                    1.0000    -1.40173963     1.40173963     1.40173963
    9 C                    6.0000     0.77867761     0.77867761     0.77867761
   10 C                    6.0000    -0.77867761    -0.77867761     0.77867761
   11 C                    6.0000    -0.77867761     0.77867761    -0.77867761
   12 C                    6.0000     0.77867761    -0.77867761    -0.77867761
   13 C                    6.0000     0.77867761     0.77867761    -0.77867761
   14 C                    6.0000    -0.77867761    -0.77867761    -0.77867761
   15 C                    6.0000     0.77867761    -0.77867761     0.77867761
   16 C                    6.0000    -0.77867761     0.77867761     0.77867761

      Atomic Mass 
      ----------- 

      H                  1.007825
      C                 12.000000


 Effective nuclear repulsion energy (a.u.)     370.0267138050

            Nuclear Dipole moment (a.u.) 
            ----------------------------
        X                 Y               Z
 ---------------- ---------------- ----------------
     0.0000000000     0.0000000000     0.0000000000

      Symmetry information
      --------------------

 Group name              Oh       
 Group number             44
 Group order              48
 No. of unique centers     2

      Symmetry unique atoms

     1    9

                                 NWChem SCF Module
                                 -----------------


                     cubane HF/def2-TZVP geometry optimization



  ao basis        = "ao basis"
  functions       =   296
  atoms           =    16
  closed shells   =    28
  open shells     =     0
  charge          =   0.00
  wavefunction    = RHF 
  input vectors   = atomic
  output vectors  = ./cubane.movecs
  use symmetry    = T
  symmetry adapt  = T


 Summary of "ao basis" -> "ao basis" (spherical)
 ------------------------------------------------------------------------------
       Tag                 Description            Shells   Functions and Types
 ---------------- ------------------------------  ------  ---------------------
 H                         def2-TZVP                 4        6   3s1p
 C                         def2-TZVP                11       31   5s3p2d1f


      Symmetry analysis of basis
      --------------------------

        a1g        16
        a1u         1
        a2g         1
        a2u        16
        eg         20
        eu         20
        t1g        33
        t1u        78
        t2g        78
        t2u        33


 Forming initial guess at       2.8s


 !! The overlap matrix has   1 vectors deemed linearly dependent with
    eigenvalues:
 6.23D-07


      Superposition of Atomic Density Guess
      -------------------------------------

 Sum of atomic energies:        -305.36909921

      Non-variational initial energy
      ------------------------------

 Total energy =    -312.171592
 1-e energy   =   -1142.695914
 2-e energy   =     460.497608
 HOMO         =      -0.297825
 LUMO         =       0.037371


      Symmetry analysis of molecular orbitals - initial
      -------------------------------------------------

  Numbering of irreducible representations: 

     1 a1g         2 a1u         3 a2g         4 a2u         5 eg      
     6 eu          7 t1g         8 t1u         9 t2g        10 t2u     

  Orbital symmetries:

     1 a1g         2 t1u         3 t1u         4 t1u         5 t2g     
     6 t2g         7 t2g         8 a2u         9 a1g        10 t1u     
    11 t1u        12 t1u        13 t2g        14 t2g        15 t2g     
    16 a1g        17 a2u        18 eg         19 eg         20 t1u     
    21 t1u        22 t1u        23 t2u        24 t2u        25 t2u     
    26 t2g        27 t2g        28 t2g        29 t1u        30 t1u     
    31 t1u        32 a1g        33 t2g        34 t2g        35 t2g     
    36 t1u        37 t1u        38 t1u     


 Starting SCF solution at      27.1s



 ----------------------------------------------
         Quadratically convergent ROHF

 Convergence threshold     :          1.000E-04
 Maximum no. of iterations :           30
 Final Fock-matrix accuracy:          1.000E-10
 ----------------------------------------------


 Integral file          = ./cubane.aoints.0
 Record size in doubles =  65536        No. of integs per rec  =  32766
 Max. records in memory =    403        Max. records in file   =  22339
 No. of bits per label  =     16        No. of bits per value  =     64


 #quartets = 9.160D+05 #integrals = 3.309D+07 #direct =  0.0% #cached =100.0%


File balance: exchanges=     1  moved=   181  time=   0.8


              iter       energy          gnorm     gmax       time
             ----- ------------------- --------- --------- --------
                 1     -307.4032197003  1.00D+00  2.29D-01     27.2
                 2     -307.4824791132  3.29D-01  6.80D-02     31.3
                 3     -307.4914028946  9.57D-03  1.71D-03     40.5
                 4     -307.4914136322  1.69D-05  4.05D-06     49.8


       Final RHF  results 
       ------------------ 

         Total SCF energy =   -307.491413632182
      One-electron energy =  -1149.385588833739
      Two-electron energy =    471.867461396599
 Nuclear repulsion energy =    370.026713804958

        Time for solution =     36.3s



       Symmetry analysis of molecular orbitals - final
       -----------------------------------------------

  Numbering of irreducible representations: 

     1 a1g         2 a1u         3 a2g         4 a2u         5 eg      
     6 eu          7 t1g         8 t1u         9 t2g        10 t2u     

  Orbital symmetries:

     1 a1g         2 t1u         3 t1u         4 t1u         5 t2g     
     6 t2g         7 t2g         8 a2u         9 a1g        10 t1u     
    11 t1u        12 t1u        13 t2g        14 t2g        15 t2g     
    16 a1g        17 a2u        18 eg         19 eg         20 t1u     
    21 t1u        22 t1u        23 t2u        24 t2u        25 t2u     
    26 t2g        27 t2g        28 t2g        29 a1g        30 t1u     
    31 t1u        32 t1u        33 t2g        34 t2g        35 t2g     
    36 t1u        37 t1u        38 t1u     

             Final eigenvalues
             -----------------

              1      
    1  -11.2163
    2  -11.2158
    3  -11.2158
    4  -11.2158
    5  -11.2153
    6  -11.2153
    7  -11.2153
    8  -11.2147
    9   -1.2518
   10   -0.9821
   11   -0.9821
   12   -0.9821
   13   -0.7689
   14   -0.7689
   15   -0.7689
   16   -0.7146
   17   -0.6416
   18   -0.5838
   19   -0.5838
   20   -0.5827
   21   -0.5827
   22   -0.5827
   23   -0.3918
   24   -0.3918
   25   -0.3918
   26   -0.3831
   27   -0.3831
   28   -0.3831
   29    0.1587
   30    0.1625
   31    0.1625
   32    0.1625
   33    0.2022
   34    0.2022
   35    0.2022
   36    0.2212
   37    0.2212
   38    0.2212

                       ROHF Final Molecular Orbital Analysis
                       -------------------------------------

 Vector    9  Occ=2.000000D+00  E=-1.251822D+00  Symmetry=a1g
              MO Center= -4.2D-17, -1.4D-17,  2.8D-17, r^2= 1.6D+00
   Bfn.  Coefficient  Atom+Function         Bfn.  Coefficient  Atom+Function  
  ----- ------------  ---------------      ----- ------------  ---------------
    52      0.134468   9 C  s                83      0.134468  10 C  s         
   114      0.134468  11 C  s               145      0.134468  12 C  s         
   176      0.134468  13 C  s               207      0.134468  14 C  s         
   238      0.134468  15 C  s               269      0.134468  16 C  s         

 Vector   10  Occ=2.000000D+00  E=-9.821374D-01  Symmetry=t1u
              MO Center= -1.0D-14, -1.4D-16, -2.4D-15, r^2= 2.6D+00
   Bfn.  Coefficient  Atom+Function         Bfn.  Coefficient  Atom+Function  
  ----- ------------  ---------------      ----- ------------  ---------------
    52      0.250995   9 C  s               207     -0.250995  14 C  s         
   114     -0.173163  11 C  s               238      0.173163  15 C  s         
    51      0.170702   9 C  s               206     -0.170702  14 C  s         

 Vector   11  Occ=2.000000D+00  E=-9.821374D-01  Symmetry=t1u
              MO Center= -3.4D-15,  5.6D-16, -2.2D-15, r^2= 2.6D+00
   Bfn.  Coefficient  Atom+Function         Bfn.  Coefficient  Atom+Function  
  ----- ------------  ---------------      ----- ------------  ---------------
   145      0.257363  12 C  s               269     -0.257363  16 C  s         
   144      0.175034  12 C  s               268     -0.175034  16 C  s         
    83     -0.154670  10 C  s               176      0.154670  13 C  s         

 Vector   12  Occ=2.000000D+00  E=-9.821374D-01  Symmetry=t1u
              MO Center= -1.1D-14, -9.3D-16,  6.8D-15, r^2= 2.6D+00
   Bfn.  Coefficient  Atom+Function         Bfn.  Coefficient  Atom+Function  
  ----- ------------  ---------------      ----- ------------  ---------------
    83      0.215493  10 C  s               176     -0.215493  13 C  s         
   114     -0.193232  11 C  s               238      0.193232  15 C  s         

 Vector   13  Occ=2.000000D+00  E=-7.688633D-01  Symmetry=t2g
              MO Center= -3.4D-15,  9.4D-16, -2.9D-16, r^2= 4.0D+00
   Bfn.  Coefficient  Atom+Function         Bfn.  Coefficient  Atom+Function  
  ----- ------------  ---------------      ----- ------------  ---------------
    83      0.250507  10 C  s               176      0.250507  13 C  s         
   114     -0.160591  11 C  s               238     -0.160591  15 C  s         
    82      0.155323  10 C  s               175      0.155323  13 C  s         

 Vector   14  Occ=2.000000D+00  E=-7.688633D-01  Symmetry=t2g
              MO Center= -6.9D-16,  1.2D-15, -1.8D-15, r^2= 4.0D+00
   Bfn.  Coefficient  Atom+Function         Bfn.  Coefficient  Atom+Function  
  ----- ------------  ---------------      ----- ------------  ---------------
   145      0.223860  12 C  s               269      0.223860  16 C  s         
   114     -0.196149  11 C  s               238     -0.196149  15 C  s         

 Vector   15  Occ=2.000000D+00  E=-7.688633D-01  Symmetry=t2g
              MO Center= -6.2D-16, -3.9D-16, -6.6D-16, r^2= 4.0D+00
   Bfn.  Coefficient  Atom+Function         Bfn.  Coefficient  Atom+Function  
  ----- ------------  ---------------      ----- ------------  ---------------
    52      0.261820   9 C  s               207      0.261820  14 C  s         
    51      0.162337   9 C  s               206      0.162337  14 C  s         

 Vector   16  Occ=2.000000D+00  E=-7.145513D-01  Symmetry=a1g
              MO Center= -4.7D-16, -8.3D-17, -3.7D-16, r^2= 4.3D+00
   Bfn.  Coefficient  Atom+Function         Bfn.  Coefficient  Atom+Function  
  ----- ------------  ---------------      ----- ------------  ---------------
     2      0.084994   1 H  s                 8      0.084994   2 H  s         
    14      0.084994   3 H  s                20      0.084994   4 H  s         
    26      0.084994   5 H  s                32      0.084994   6 H  s         
    38      0.084994   7 H  s                44      0.084994   8 H  s         

 Vector   17  Occ=2.000000D+00  E=-6.416206D-01  Symmetry=a2u
              MO Center=  6.1D-16,  7.2D-16, -5.0D-16, r^2= 5.0D+00
   Bfn.  Coefficient  Atom+Function         Bfn.  Coefficient  Atom+Function  
  ----- ------------  ---------------      ----- ------------  ---------------
    52      0.117408   9 C  s                83      0.117408  10 C  s         
   114      0.117408  11 C  s               145      0.117408  12 C  s         
   176     -0.117408  13 C  s               207     -0.117408  14 C  s         
   238     -0.117408  15 C  s               269     -0.117408  16 C  s         

 Vector   18  Occ=2.000000D+00  E=-5.838244D-01  Symmetry=eg
              MO Center= -2.4D-16, -5.2D-15, -8.7D-15, r^2= 2.5D+00
   Bfn.  Coefficient  Atom+Function         Bfn.  Coefficient  Atom+Function  
  ----- ------------  ---------------      ----- ------------  ---------------
    56     -0.103566   9 C  pz               87     -0.103566  10 C  pz        
   118      0.103566  11 C  pz              149      0.103566  12 C  pz        
   180      0.103566  13 C  pz              211      0.103566  14 C  pz        
   242     -0.103566  15 C  pz              273     -0.103566  16 C  pz        
    55      0.098310   9 C  py               86     -0.098310  10 C  py        

 Vector   19  Occ=2.000000D+00  E=-5.838244D-01  Symmetry=eg
              MO Center=  4.8D-15,  2.9D-15, -9.0D-16, r^2= 2.5D+00
   Bfn.  Coefficient  Atom+Function         Bfn.  Coefficient  Atom+Function  
  ----- ------------  ---------------      ----- ------------  ---------------
    54      0.116553   9 C  px               85     -0.116553  10 C  px        
   116     -0.116553  11 C  px              147      0.116553  12 C  px        
   178      0.116553  13 C  px              209     -0.116553  14 C  px        
   240      0.116553  15 C  px              271     -0.116553  16 C  px        
    57      0.104960   9 C  px               88     -0.104960  10 C  px        

 Vector   20  Occ=2.000000D+00  E=-5.826658D-01  Symmetry=t1u
              MO Center=  1.9D-16,  1.7D-16,  1.9D-16, r^2= 4.1D+00
   Bfn.  Coefficient  Atom+Function         Bfn.  Coefficient  Atom+Function  
  ----- ------------  ---------------      ----- ------------  ---------------
    20      0.160100   4 H  s                44     -0.160100   8 H  s         

 Vector   21  Occ=2.000000D+00  E=-5.826658D-01  Symmetry=t1u
              MO Center=  1.1D-15,  7.0D-16, -2.1D-14, r^2= 4.1D+00
   Bfn.  Coefficient  Atom+Function         Bfn.  Coefficient  Atom+Function  
  ----- ------------  ---------------      ----- ------------  ---------------
     8      0.147670   2 H  s                26     -0.147670   5 H  s         

 Vector   22  Occ=2.000000D+00  E=-5.826658D-01  Symmetry=t1u
              MO Center=  1.5D-16, -1.8D-16,  3.5D-16, r^2= 4.1D+00
   Bfn.  Coefficient  Atom+Function         Bfn.  Coefficient  Atom+Function  
  ----- ------------  ---------------      ----- ------------  ---------------
     2      0.171086   1 H  s                32     -0.171086   6 H  s         

 Vector   23  Occ=2.000000D+00  E=-3.917599D-01  Symmetry=t2u
              MO Center= -1.3D-15, -1.2D-15, -4.2D-17, r^2= 2.8D+00
   Bfn.  Coefficient  Atom+Function         Bfn.  Coefficient  Atom+Function  
  ----- ------------  ---------------      ----- ------------  ---------------
   118      0.141272  11 C  pz              149     -0.141272  12 C  pz        
   242      0.141272  15 C  pz              273     -0.141272  16 C  pz        
   121      0.135605  11 C  pz              152     -0.135605  12 C  pz        
   245      0.135605  15 C  pz              276     -0.135605  16 C  pz        
    85      0.134095  10 C  px              116     -0.134095  11 C  px        

 Vector   24  Occ=2.000000D+00  E=-3.917599D-01  Symmetry=t2u
              MO Center=  6.4D-16, -1.7D-15,  1.7D-15, r^2= 2.8D+00
   Bfn.  Coefficient  Atom+Function         Bfn.  Coefficient  Atom+Function  
  ----- ------------  ---------------      ----- ------------  ---------------
    56      0.148017   9 C  pz               87     -0.148017  10 C  pz        
   180     -0.148017  13 C  pz              211      0.148017  14 C  pz        
    59      0.142080   9 C  pz               90     -0.142080  10 C  pz        
   183     -0.142080  13 C  pz              214      0.142080  14 C  pz        

 Vector   25  Occ=2.000000D+00  E=-3.917599D-01  Symmetry=t2u
              MO Center= -7.4D-16,  1.7D-15,  2.5D-16, r^2= 2.8D+00
   Bfn.  Coefficient  Atom+Function         Bfn.  Coefficient  Atom+Function  
  ----- ------------  ---------------      ----- ------------  ---------------
    54      0.154958   9 C  px              147     -0.154958  12 C  px        
   209      0.154958  14 C  px              271     -0.154958  16 C  px        

 Vector   26  Occ=2.000000D+00  E=-3.830730D-01  Symmetry=t2g
              MO Center=  1.1D-14,  1.1D-14, -1.4D-17, r^2= 3.5D+00
   Bfn.  Coefficient  Atom+Function         Bfn.  Coefficient  Atom+Function  
  ----- ------------  ---------------      ----- ------------  ---------------
    52      0.171561   9 C  s               207      0.171561  14 C  s         

 Vector   27  Occ=2.000000D+00  E=-3.830730D-01  Symmetry=t2g
              MO Center=  1.3D-14, -1.9D-14,  4.5D-15, r^2= 3.5D+00
   Bfn.  Coefficient  Atom+Function         Bfn.  Coefficient  Atom+Function  
  ----- ------------  ---------------      ----- ------------  ---------------
   114      0.157025  11 C  s               238      0.157025  15 C  s         

 Vector   28  Occ=2.000000D+00  E=-3.830730D-01  Symmetry=t2g
              MO Center=  1.7D-14, -1.9D-14, -3.0D-14, r^2= 3.5D+00
   Bfn.  Coefficient  Atom+Function         Bfn.  Coefficient  Atom+Function  
  ----- ------------  ---------------      ----- ------------  ---------------
   145      0.145777  12 C  s               269      0.145777  16 C  s         

 Vector   29  Occ=0.000000D+00  E= 1.586798D-01  Symmetry=a1g
              MO Center=  4.8D-15,  2.1D-15,  1.8D-15, r^2= 1.2D+01
   Bfn.  Coefficient  Atom+Function         Bfn.  Coefficient  Atom+Function  
  ----- ------------  ---------------      ----- ------------  ---------------
     3      1.261162   1 H  s                 9      1.261162   2 H  s         
    15      1.261162   3 H  s                21      1.261162   4 H  s         
    27      1.261162   5 H  s                33      1.261162   6 H  s         
    39      1.261162   7 H  s                45      1.261162   8 H  s         
    53     -0.763337   9 C  s                84     -0.763337  10 C  s         

 Vector   30  Occ=0.000000D+00  E= 1.624604D-01  Symmetry=t1u
              MO Center= -4.9D-15, -3.5D-15, -3.7D-15, r^2= 9.3D+00
   Bfn.  Coefficient  Atom+Function         Bfn.  Coefficient  Atom+Function  
  ----- ------------  ---------------      ----- ------------  ---------------
    53      2.486194   9 C  s               208     -2.486194  14 C  s         
    84     -2.435732  10 C  s               177      2.435732  13 C  s         
   115     -1.326907  11 C  s               239      1.326907  15 C  s         
   146      1.276445  12 C  s               270     -1.276445  16 C  s         
     3     -0.840676   1 H  s                33      0.840676   6 H  s         

 Vector   31  Occ=0.000000D+00  E= 1.624604D-01  Symmetry=t1u
              MO Center=  1.6D-15, -7.7D-15,  1.4D-15, r^2= 9.3D+00
   Bfn.  Coefficient  Atom+Function         Bfn.  Coefficient  Atom+Function  
  ----- ------------  ---------------      ----- ------------  ---------------
   115      3.044926  11 C  s               239     -3.044926  15 C  s         
    84     -2.007142  10 C  s               177      2.007142  13 C  s         
   146     -1.431375  12 C  s               270      1.431375  16 C  s         
    15     -1.029604   3 H  s                39      1.029604   7 H  s         
    61     -0.723918   9 C  py              216     -0.723918  14 C  py        

 Vector   32  Occ=0.000000D+00  E= 1.624604D-01  Symmetry=t1u
              MO Center=  1.4D-15, -1.1D-14, -4.1D-15, r^2= 9.3D+00
   Bfn.  Coefficient  Atom+Function         Bfn.  Coefficient  Atom+Function  
  ----- ------------  ---------------      ----- ------------  ---------------
   146      2.819541  12 C  s               270     -2.819541  16 C  s         
    53     -2.300410   9 C  s               208      2.300410  14 C  s         
    84     -1.290948  10 C  s               177      1.290948  13 C  s         
    21     -0.953393   4 H  s                45      0.953393   8 H  s         
     3      0.777855   1 H  s                33     -0.777855   6 H  s         

 Vector   33  Occ=0.000000D+00  E= 2.021853D-01  Symmetry=t2g
              MO Center=  1.8D-14, -2.7D-14, -1.1D-14, r^2= 1.4D+01
   Bfn.  Coefficient  Atom+Function         Bfn.  Coefficient  Atom+Function  
  ----- ------------  ---------------      ----- ------------  ---------------
    21      3.804032   4 H  s                45      3.804032   8 H  s         
     9     -2.208629   2 H  s                27     -2.208629   5 H  s         
   155      2.185590  12 C  pz              279     -2.185590  16 C  pz        
   153     -2.134657  12 C  px              277      2.134657  16 C  px        
   154      1.926998  12 C  py              278     -1.926998  16 C  py        

 Vector   34  Occ=0.000000D+00  E= 2.021853D-01  Symmetry=t2g
              MO Center=  6.5D-15,  1.1D-14,  2.2D-14, r^2= 1.4D+01
   Bfn.  Coefficient  Atom+Function         Bfn.  Coefficient  Atom+Function  
  ----- ------------  ---------------      ----- ------------  ---------------
     3      3.213996   1 H  s                33      3.213996   6 H  s         
     9     -3.031407   2 H  s                27     -3.031407   5 H  s         
    61     -2.045707   9 C  py              216      2.045707  14 C  py        
    92     -1.965867  10 C  py              185      1.965867  13 C  py        
    60     -1.796985   9 C  px              215      1.796985  14 C  px        

 Vector   35  Occ=0.000000D+00  E= 2.021853D-01  Symmetry=t2g
              MO Center=  5.3D-14, -4.0D-13,  2.2D-13, r^2= 1.4D+01
   Bfn.  Coefficient  Atom+Function         Bfn.  Coefficient  Atom+Function  
  ----- ------------  ---------------      ----- ------------  ---------------
    15      3.827540   3 H  s                39      3.827540   7 H  s         
   124      2.212809  11 C  pz              248     -2.212809  15 C  pz        
   122      2.108217  11 C  px              246     -2.108217  15 C  px        
     3     -2.065407   1 H  s                33     -2.065407   6 H  s         
   123     -1.964826  11 C  py              247      1.964826  15 C  py        

 Vector   36  Occ=0.000000D+00  E= 2.211602D-01  Symmetry=t1u
              MO Center=  7.3D-14, -4.7D-14, -2.5D-13, r^2= 1.1D+01
   Bfn.  Coefficient  Atom+Function         Bfn.  Coefficient  Atom+Function  
  ----- ------------  ---------------      ----- ------------  ---------------
    21      2.946166   4 H  s                45     -2.946166   8 H  s         
     9     -1.774221   2 H  s                27      1.774221   5 H  s         
   155      1.666450  12 C  pz              279      1.666450  16 C  pz        
   153     -1.572832  12 C  px              277     -1.572832  16 C  px        
   154      1.414437  12 C  py              278      1.414437  16 C  py        

 Vector   37  Occ=0.000000D+00  E= 2.211602D-01  Symmetry=t1u
              MO Center= -1.4D-13,  6.3D-15, -8.0D-14, r^2= 1.1D+01
   Bfn.  Coefficient  Atom+Function         Bfn.  Coefficient  Atom+Function  
  ----- ------------  ---------------      ----- ------------  ---------------
     9      2.440781   2 H  s                27     -2.440781   5 H  s         
    15     -2.098169   3 H  s                39      2.098169   7 H  s         
    92      1.578944  10 C  py              185      1.578944  13 C  py        
   123      1.437994  11 C  py              247      1.437994  15 C  py        
     3     -1.230314   1 H  s                33      1.230314   6 H  s         

 Vector   38  Occ=0.000000D+00  E= 2.211602D-01  Symmetry=t1u
              MO Center= -1.5D-14,  4.5D-13, -7.3D-14, r^2= 1.1D+01
   Bfn.  Coefficient  Atom+Function         Bfn.  Coefficient  Atom+Function  
  ----- ------------  ---------------      ----- ------------  ---------------
     3      2.692193   1 H  s                33     -2.692193   6 H  s         
    15     -2.234854   3 H  s                39      2.234854   7 H  s         
    60     -1.601468   9 C  px              215     -1.601468  14 C  px        
    62     -1.464535   9 C  pz              217     -1.464535  14 C  pz        
   122     -1.413319  11 C  px              246     -1.413319  15 C  px        

 Vector   39  Occ=0.000000D+00  E= 2.294294D-01  Symmetry=a2u
              MO Center=  3.4D-14, -2.6D-14,  5.9D-14, r^2= 1.5D+01
   Bfn.  Coefficient  Atom+Function         Bfn.  Coefficient  Atom+Function  
  ----- ------------  ---------------      ----- ------------  ---------------
     3      2.506805   1 H  s                 9      2.506805   2 H  s         
    15      2.506805   3 H  s                21      2.506805   4 H  s         
    27     -2.506805   5 H  s                33     -2.506805   6 H  s         
    39     -2.506805   7 H  s                45     -2.506805   8 H  s         
    60     -1.241012   9 C  px               61     -1.241012   9 C  py        

 Vector   40  Occ=0.000000D+00  E= 2.984699D-01  Symmetry=eg
              MO Center=  1.5D-16,  1.0D-15, -3.2D-15, r^2= 7.8D+00
   Bfn.  Coefficient  Atom+Function         Bfn.  Coefficient  Atom+Function  
  ----- ------------  ---------------      ----- ------------  ---------------
    62      0.326141   9 C  pz               93      0.326141  10 C  pz        
   124     -0.326141  11 C  pz              155     -0.326141  12 C  pz        
   186     -0.326141  13 C  pz              217     -0.326141  14 C  pz        
   248      0.326141  15 C  pz              279      0.326141  16 C  pz        
    59     -0.199594   9 C  pz               90     -0.199594  10 C  pz        

 Vector   41  Occ=0.000000D+00  E= 2.984699D-01  Symmetry=eg
              MO Center= -6.4D-16, -1.1D-15,  2.5D-16, r^2= 7.8D+00
   Bfn.  Coefficient  Atom+Function         Bfn.  Coefficient  Atom+Function  
  ----- ------------  ---------------      ----- ------------  ---------------
    61      0.301512   9 C  py               92     -0.301512  10 C  py        
   123      0.301512  11 C  py              154     -0.301512  12 C  py        
   185      0.301512  13 C  py              216     -0.301512  14 C  py        
   247     -0.301512  15 C  py              278      0.301512  16 C  py        
    60     -0.263381   9 C  px               91      0.263381  10 C  px        

 Vector   42  Occ=0.000000D+00  E= 3.218514D-01  Symmetry=t2g
              MO Center= -3.5D-13,  1.8D-13,  1.3D-13, r^2= 1.2D+01
   Bfn.  Coefficient  Atom+Function         Bfn.  Coefficient  Atom+Function  
  ----- ------------  ---------------      ----- ------------  ---------------
    84     27.006378  10 C  s               177     27.006378  13 C  s         
    53    -13.737367   9 C  s               208    -13.737367  14 C  s         
    93     -9.157830  10 C  pz              186      9.157830  13 C  pz        
   115     -9.011557  11 C  s               239     -9.011557  15 C  s         
    91      8.719076  10 C  px              184     -8.719076  13 C  px        

 Vector   43  Occ=0.000000D+00  E= 3.218514D-01  Symmetry=t2g
              MO Center=  8.0D-14,  1.2D-13, -3.1D-13, r^2= 1.2D+01
   Bfn.  Coefficient  Atom+Function         Bfn.  Coefficient  Atom+Function  
  ----- ------------  ---------------      ----- ------------  ---------------
   146     23.599490  12 C  s               270     23.599490  16 C  s         
    53    -20.483439   9 C  s               208    -20.483439  14 C  s         
   153     -8.789772  12 C  px              277      8.789772  16 C  px        
    60      8.169583   9 C  px              215     -8.169583  14 C  px        
   154      7.426766  12 C  py              278     -7.426766  16 C  py        

 Vector   44  Occ=0.000000D+00  E= 3.218514D-01  Symmetry=t2g
              MO Center=  1.7D-14, -1.7D-13,  6.7D-14, r^2= 1.2D+01
   Bfn.  Coefficient  Atom+Function         Bfn.  Coefficient  Atom+Function  
  ----- ------------  ---------------      ----- ------------  ---------------
   115     25.973448  11 C  s               239     25.973448  15 C  s         
   146    -13.710707  12 C  s               270    -13.710707  16 C  s         
    53    -12.440209   9 C  s               208    -12.440209  14 C  s         
   124      8.853871  11 C  pz              248     -8.853871  15 C  pz        
   123     -8.735915  11 C  py              247      8.735915  15 C  py        

 Vector   45  Occ=0.000000D+00  E= 3.372998D-01  Symmetry=t1g
              MO Center= -1.6D-15,  2.0D-15,  1.0D-15, r^2= 6.9D+00
   Bfn.  Coefficient  Atom+Function         Bfn.  Coefficient  Atom+Function  
  ----- ------------  ---------------      ----- ------------  ---------------
    60      1.401037   9 C  px              153     -1.401037  12 C  px        
   215     -1.401037  14 C  px              277      1.401037  16 C  px        
    92      1.322379  10 C  py              154     -1.322379  12 C  py        
   185     -1.322379  13 C  py              278      1.322379  16 C  py        
    61     -1.044360   9 C  py              123      1.044360  11 C  py        

 Vector   46  Occ=0.000000D+00  E= 3.372998D-01  Symmetry=t1g
              MO Center=  2.7D-15,  5.5D-15, -4.8D-15, r^2= 6.9D+00
   Bfn.  Coefficient  Atom+Function         Bfn.  Coefficient  Atom+Function  
  ----- ------------  ---------------      ----- ------------  ---------------
    62      1.626799   9 C  pz               93     -1.626799  10 C  pz        
   186      1.626799  13 C  pz              217     -1.626799  14 C  pz        
    61     -1.257094   9 C  py              123      1.257094  11 C  py        
   216      1.257094  14 C  py              247     -1.257094  15 C  py        
    91     -0.831765  10 C  px              122      0.831765  11 C  px        

 Vector   47  Occ=0.000000D+00  E= 3.372998D-01  Symmetry=t1g
              MO Center= -7.4D-15,  5.5D-15,  2.2D-16, r^2= 6.9D+00
   Bfn.  Coefficient  Atom+Function         Bfn.  Coefficient  Atom+Function  
  ----- ------------  ---------------      ----- ------------  ---------------
   124      1.657419  11 C  pz              155     -1.657419  12 C  pz        
   248     -1.657419  15 C  pz              279      1.657419  16 C  pz        
    91      1.144430  10 C  px              122     -1.144430  11 C  px        
   184     -1.144430  13 C  px              246      1.144430  15 C  px        
    60      0.913534   9 C  px              153     -0.913534  12 C  px        

 Vector   48  Occ=0.000000D+00  E= 3.532331D-01  Symmetry=a1g
              MO Center=  1.3D-13, -1.0D-13,  1.7D-14, r^2= 6.8D+00
   Bfn.  Coefficient  Atom+Function         Bfn.  Coefficient  Atom+Function  
  ----- ------------  ---------------      ----- ------------  ---------------
    53      0.848389   9 C  s                84      0.848389  10 C  s         
   115      0.848389  11 C  s               146      0.848389  12 C  s         
   177      0.848389  13 C  s               208      0.848389  14 C  s         
   239      0.848389  15 C  s               270      0.848389  16 C  s         
     3     -0.598448   1 H  s                 9     -0.598448   2 H  s         

 Vector   49  Occ=0.000000D+00  E= 3.665567D-01  Symmetry=t2u
              MO Center= -4.2D-15,  2.6D-14, -9.0D-15, r^2= 8.9D+00
   Bfn.  Coefficient  Atom+Function         Bfn.  Coefficient  Atom+Function  
  ----- ------------  ---------------      ----- ------------  ---------------
    61      0.665753   9 C  py              123     -0.665753  11 C  py        
   216      0.665753  14 C  py              247     -0.665753  15 C  py        
   124     -0.597801  11 C  pz              155      0.597801  12 C  pz        
   248     -0.597801  15 C  pz              279      0.597801  16 C  pz        
    62     -0.496722   9 C  pz               93      0.496722  10 C  pz        

 Vector   50  Occ=0.000000D+00  E= 3.665567D-01  Symmetry=t2u
              MO Center= -2.3D-15, -9.4D-16,  0.0D+00, r^2= 8.9D+00
   Bfn.  Coefficient  Atom+Function         Bfn.  Coefficient  Atom+Function  
  ----- ------------  ---------------      ----- ------------  ---------------
    60      0.746060   9 C  px              153     -0.746060  12 C  px        
   215      0.746060  14 C  px              277     -0.746060  16 C  px        
    62     -0.591253   9 C  pz               93      0.591253  10 C  pz        
   186      0.591253  13 C  pz              217     -0.591253  14 C  pz        
   124      0.390026  11 C  pz              155     -0.390026  12 C  pz        

 Vector   51  Occ=0.000000D+00  E= 3.665567D-01  Symmetry=t2u
              MO Center= -1.3D-14, -9.8D-15,  8.0D-15, r^2= 8.9D+00
   Bfn.  Coefficient  Atom+Function         Bfn.  Coefficient  Atom+Function  
  ----- ------------  ---------------      ----- ------------  ---------------
    91      0.756461  10 C  px              122     -0.756461  11 C  px        
   184      0.756461  13 C  px              246     -0.756461  15 C  px        
    92     -0.567077  10 C  py              154      0.567077  12 C  py        
   185     -0.567077  13 C  py              278      0.567077  16 C  py        
    61      0.406186   9 C  py              123     -0.406186  11 C  py        

 Vector   52  Occ=0.000000D+00  E= 4.344458D-01  Symmetry=t1u
              MO Center= -6.8D-14, -1.1D-13, -1.0D-13, r^2= 7.2D+00
   Bfn.  Coefficient  Atom+Function         Bfn.  Coefficient  Atom+Function  
  ----- ------------  ---------------      ----- ------------  ---------------
    84      3.864867  10 C  s               177     -3.864867  13 C  s         
    91      3.153527  10 C  px              184      3.153527  13 C  px        
    53     -2.660537   9 C  s               146     -2.656132  12 C  s         
   208      2.660537  14 C  s               270      2.656132  16 C  s         
    60      2.555000   9 C  px              153      2.552811  12 C  px        

 Vector   53  Occ=0.000000D+00  E= 4.344458D-01  Symmetry=t1u
              MO Center=  4.7D-14,  1.5D-13,  3.7D-14, r^2= 7.2D+00
   Bfn.  Coefficient  Atom+Function         Bfn.  Coefficient  Atom+Function  
  ----- ------------  ---------------      ----- ------------  ---------------
   115      3.443754  11 C  s               239     -3.443754  15 C  s         
   146     -3.265085  12 C  s               270      3.265085  16 C  s         
   123     -2.971251  11 C  py              247     -2.971251  15 C  py        
   154     -2.882456  12 C  py              278     -2.882456  16 C  py        
    92     -2.337260  10 C  py              185     -2.337260  13 C  py        

 Vector   54  Occ=0.000000D+00  E= 4.344458D-01  Symmetry=t1u
              MO Center= -1.2D-14,  1.6D-14,  8.1D-14, r^2= 7.2D+00
   Bfn.  Coefficient  Atom+Function         Bfn.  Coefficient  Atom+Function  
  ----- ------------  ---------------      ----- ------------  ---------------
    53      3.513924   9 C  s               208     -3.513924  14 C  s         
   115     -3.068655  11 C  s               239      3.068655  15 C  s         
    62     -3.009894   9 C  pz              217     -3.009894  14 C  pz        
   124     -2.788605  11 C  pz              248     -2.788605  15 C  pz        
   155     -2.446734  12 C  pz              279     -2.446734  16 C  pz        

 Vector   55  Occ=0.000000D+00  E= 4.598913D-01  Symmetry=eu
              MO Center=  1.1D-14,  1.7D-14,  9.0D-14, r^2= 9.0D+00
   Bfn.  Coefficient  Atom+Function         Bfn.  Coefficient  Atom+Function  
  ----- ------------  ---------------      ----- ------------  ---------------
    62      3.295028   9 C  pz               93      3.295028  10 C  pz        
   124     -3.295028  11 C  pz              155     -3.295028  12 C  pz        
   186      3.295028  13 C  pz              217      3.295028  14 C  pz        
   248     -3.295028  15 C  pz              279     -3.295028  16 C  pz        
    60     -2.536580   9 C  px               91      2.536580  10 C  px        

 Vector   56  Occ=0.000000D+00  E= 4.598913D-01  Symmetry=eu
              MO Center=  7.1D-15,  6.1D-16,  2.9D-14, r^2= 9.0D+00
   Bfn.  Coefficient  Atom+Function         Bfn.  Coefficient  Atom+Function  
  ----- ------------  ---------------      ----- ------------  ---------------
    61      3.366880   9 C  py               92     -3.366880  10 C  py        
   123      3.366880  11 C  py              154     -3.366880  12 C  py        
   185     -3.366880  13 C  py              216      3.366880  14 C  py        
   247      3.366880  15 C  py              278     -3.366880  16 C  py        
    60     -2.340275   9 C  px               91      2.340275  10 C  px        

 Vector   57  Occ=0.000000D+00  E= 4.806588D-01  Symmetry=a1g
              MO Center= -1.1D-14,  2.6D-14, -4.8D-14, r^2= 1.0D+01
   Bfn.  Coefficient  Atom+Function         Bfn.  Coefficient  Atom+Function  
  ----- ------------  ---------------      ----- ------------  ---------------
     3      2.296672   1 H  s                 9      2.296672   2 H  s         
    15      2.296672   3 H  s                21      2.296672   4 H  s         
    27      2.296672   5 H  s                33      2.296672   6 H  s         
    39      2.296672   7 H  s                45      2.296672   8 H  s         
    53     -1.612696   9 C  s                84     -1.612696  10 C  s         

 Vector   58  Occ=0.000000D+00  E= 5.534821D-01  Symmetry=t1u
              MO Center=  1.3D-14,  2.5D-14,  1.2D-14, r^2= 9.0D+00
   Bfn.  Coefficient  Atom+Function         Bfn.  Coefficient  Atom+Function  
  ----- ------------  ---------------      ----- ------------  ---------------
   115      5.172370  11 C  s               239     -5.172370  15 C  s         
   146     -4.884800  12 C  s               270      4.884800  16 C  s         
    53     -2.381450   9 C  s               208      2.381450  14 C  s         
    15     -2.293567   3 H  s                39      2.293567   7 H  s         
    21      2.166051   4 H  s                45     -2.166051   8 H  s         


 center of mass
 --------------
 x =   0.00000000 y =   0.00000000 z =   0.00000000

 moments of inertia (a.u.)
 ------------------
         528.878336962772           0.000000000000           0.000000000000
           0.000000000000         528.878336962772           0.000000000000
           0.000000000000           0.000000000000         528.878336962772

  Mulliken analysis of the total density
  --------------------------------------

    Atom       Charge   Shell Charges
 -----------   ------   -------------------------------------------------------
    1 H    1     0.88   0.27  0.50  0.08  0.02
    2 H    1     0.88   0.27  0.50  0.08  0.02
    3 H    1     0.88   0.27  0.50  0.08  0.02
    4 H    1     0.88   0.27  0.50  0.08  0.02
    5 H    1     0.88   0.27  0.50  0.08  0.02
    6 H    1     0.88   0.27  0.50  0.08  0.02
    7 H    1     0.88   0.27  0.50  0.08  0.02
    8 H    1     0.88   0.27  0.50  0.08  0.02
    9 C    6     6.12   0.85  1.12  0.45  0.76 -0.01  1.22  1.32  0.29  0.03  0.08  0.01
   10 C    6     6.12   0.85  1.12  0.45  0.76 -0.01  1.22  1.32  0.29  0.03  0.08  0.01
   11 C    6     6.12   0.85  1.12  0.45  0.76 -0.01  1.22  1.32  0.29  0.03  0.08  0.01
   12 C    6     6.12   0.85  1.12  0.45  0.76 -0.01  1.22  1.32  0.29  0.03  0.08  0.01
   13 C    6     6.12   0.85  1.12  0.45  0.76 -0.01  1.22  1.32  0.29  0.03  0.08  0.01
   14 C    6     6.12   0.85  1.12  0.45  0.76 -0.01  1.22  1.32  0.29  0.03  0.08  0.01
   15 C    6     6.12   0.85  1.12  0.45  0.76 -0.01  1.22  1.32  0.29  0.03  0.08  0.01
   16 C    6     6.12   0.85  1.12  0.45  0.76 -0.01  1.22  1.32  0.29  0.03  0.08  0.01

       Multipole analysis of the density wrt the origin
       ------------------------------------------------

     L   x y z        total         open         nuclear
     -   - - -        -----         ----         -------
     0   0 0 0     -0.000000      0.000000     56.000000

     1   1 0 0     -0.000000      0.000000      0.000000
     1   0 1 0      0.000000      0.000000      0.000000
     1   0 0 1      0.000000      0.000000      0.000000

     2   2 0 0    -34.882210      0.000000    160.066727
     2   1 1 0     -0.000000      0.000000      0.000000
     2   1 0 1     -0.000000      0.000000      0.000000
     2   0 2 0    -34.882210      0.000000    160.066727
     2   0 1 1     -0.000000      0.000000      0.000000
     2   0 0 2    -34.882210      0.000000    160.066727


------------------------------------------------------------
EAF file 0: "./cubane.aoints.0" size=54001664 bytes
------------------------------------------------------------
               write      read    awrite     aread      wait
               -----      ----    ------     -----      ----
     calls:      284        10         0      1098      1098
   data(b): 1.49e+08  5.24e+06  0.00e+00  5.76e+08
   time(s): 0.00e+00  0.00e+00  0.00e+00  0.00e+00  0.00e+00
rate(mb/s): 0.00e+00  0.00e+00
------------------------------------------------------------


 Parallel integral file used    1011 records with       0 large values

                              NWChem Gradients Module
                              -----------------------


                     cubane HF/def2-TZVP geometry optimization


  wavefunction    =   RHF     

  Using symmetry


                         RHF ENERGY GRADIENTS

    atom               coordinates                        gradient
                 x          y          z           x          y          z
   1 H       2.648904   2.648904   2.648904    0.000025   0.000025   0.000025
   2 H      -2.648904  -2.648904   2.648904   -0.000025  -0.000025   0.000025
   3 H      -2.648904   2.648904  -2.648904   -0.000025   0.000025  -0.000025
   4 H       2.648904  -2.648904  -2.648904    0.000025  -0.000025  -0.000025
   5 H       2.648904   2.648904  -2.648904    0.000025   0.000025  -0.000025
   6 H      -2.648904  -2.648904  -2.648904   -0.000025  -0.000025  -0.000025
   7 H       2.648904  -2.648904   2.648904    0.000025  -0.000025   0.000025
   8 H      -2.648904   2.648904   2.648904   -0.000025   0.000025   0.000025
   9 C       1.471487   1.471487   1.471487   -0.000078  -0.000078  -0.000078
  10 C      -1.471487  -1.471487   1.471487    0.000078   0.000078  -0.000078
  11 C      -1.471487   1.471487  -1.471487    0.000078  -0.000078   0.000078
  12 C       1.471487  -1.471487  -1.471487   -0.000078   0.000078   0.000078
  13 C       1.471487   1.471487  -1.471487   -0.000078  -0.000078   0.000078
  14 C      -1.471487  -1.471487  -1.471487    0.000078   0.000078   0.000078
  15 C       1.471487  -1.471487   1.471487   -0.000078   0.000078  -0.000078
  16 C      -1.471487   1.471487   1.471487    0.000078  -0.000078  -0.000078

                 ----------------------------------------
                 |  Time  |  1-e(secs)   |  2-e(secs)   |
                 ----------------------------------------
                 |  CPU   |       0.06   |      44.57   |
                 ----------------------------------------
                 |  WALL  |       0.14   |      61.93   |
                 ----------------------------------------

@ Step       Energy      Delta E   Gmax     Grms     Xrms     Xmax   Walltime
@ ---- ---------------- -------- -------- -------- -------- -------- --------
@    0    -307.49141363  0.0D+00  0.00005  0.00002  0.00000  0.00000    154.0
                                     ok       ok       ok       ok  



                                Z-matrix (autoz)
                                -------- 

 Units are Angstrom for bonds and degrees for angles

      Type          Name      I     J     K     L     M      Value     Gradient
      ----------- --------  ----- ----- ----- ----- ----- ---------- ----------
    1 Stretch                  1     9                       1.07918    0.00004
    2 Stretch                  2    10                       1.07918    0.00004
    3 Stretch                  3    11                       1.07918    0.00004
    4 Stretch                  4    12                       1.07918    0.00004
    5 Stretch                  5    13                       1.07918    0.00004
    6 Stretch                  6    14                       1.07918    0.00004
    7 Stretch                  7    15                       1.07918    0.00004
    8 Stretch                  8    16                       1.07918    0.00004
    9 Stretch                  9    13                       1.55736   -0.00005
   10 Stretch                  9    15                       1.55736   -0.00005
   11 Stretch                  9    16                       1.55736   -0.00005
   12 Stretch                 10    14                       1.55736   -0.00005
   13 Stretch                 10    15                       1.55736   -0.00005
   14 Stretch                 10    16                       1.55736   -0.00005
   15 Stretch                 11    13                       1.55736   -0.00005
   16 Stretch                 11    14                       1.55736   -0.00005
   17 Stretch                 11    16                       1.55736   -0.00005
   18 Stretch                 12    13                       1.55736   -0.00005
   19 Stretch                 12    14                       1.55736   -0.00005
   20 Stretch                 12    15                       1.55736   -0.00005
   21 Bend                     1     9    13               125.26439    0.00000
   22 Bend                     1     9    15               125.26439   -0.00000
   23 Bend                     1     9    16               125.26439    0.00000
   24 Bend                     2    10    14               125.26439    0.00000
   25 Bend                     2    10    15               125.26439    0.00000
   26 Bend                     2    10    16               125.26439    0.00000
   27 Bend                     3    11    13               125.26439   -0.00000
   28 Bend                     3    11    14               125.26439   -0.00000
   29 Bend                     3    11    16               125.26439    0.00000
   30 Bend                     4    12    13               125.26439   -0.00000
   31 Bend                     4    12    14               125.26439   -0.00000
   32 Bend                     4    12    15               125.26439    0.00000
   33 Bend                     5    13     9               125.26439    0.00000
   34 Bend                     5    13    11               125.26439   -0.00000
   35 Bend                     5    13    12               125.26439   -0.00000
   36 Bend                     6    14    10               125.26439    0.00000
   37 Bend                     6    14    11               125.26439   -0.00000
   38 Bend                     6    14    12               125.26439   -0.00000
   39 Bend                     7    15     9               125.26439   -0.00000
   40 Bend                     7    15    10               125.26439   -0.00000
   41 Bend                     7    15    12               125.26439    0.00000
   42 Bend                     8    16     9               125.26439   -0.00000
   43 Bend                     8    16    10               125.26439    0.00000
   44 Bend                     8    16    11               125.26439   -0.00000
   45 Bend                     9    13    11                90.00000    0.00000
   46 Bend                     9    13    12                90.00000    0.00000
   47 Bend                     9    15    10                90.00000    0.00000
   48 Bend                     9    15    12                90.00000   -0.00000
   49 Bend                     9    16    10                90.00000    0.00000
   50 Bend                     9    16    11                90.00000    0.00000
   51 Bend                    10    14    11                90.00000   -0.00000
   52 Bend                    10    14    12                90.00000   -0.00000
   53 Bend                    10    15    12                90.00000   -0.00000
   54 Bend                    10    16    11                90.00000    0.00000
[...]
   53 Bend                    10    15    12                90.00000    0.00000
   54 Bend                    10    16    11                90.00000    0.00000
   55 Bend                    11    13    12                90.00000    0.00000
   56 Bend                    11    14    12                90.00000    0.00000
   57 Bend                    13     9    15                90.00000    0.00000
   58 Bend                    13     9    16                90.00000    0.00000
   59 Bend                    13    11    14                90.00000    0.00000
   60 Bend                    13    11    16                90.00000    0.00000
   61 Bend                    13    12    14                90.00000    0.00000
   62 Bend                    13    12    15                90.00000    0.00000
   63 Bend                    14    10    15                90.00000    0.00000
   64 Bend                    14    10    16                90.00000    0.00000
   65 Bend                    14    11    16                90.00000    0.00000
   66 Bend                    14    12    15                90.00000    0.00000
   67 Bend                    15     9    16                90.00000    0.00000
   68 Bend                    15    10    16                90.00000    0.00000
   69 Torsion                  1     9    13     5           0.00000    0.00000
   70 Torsion                  1     9    13    11        -135.00000   -0.00000
   71 Torsion                  1     9    13    12         135.00000    0.00000
   72 Torsion                  1     9    15     7           0.00000    0.00000
   73 Torsion                  1     9    15    10         135.00000    0.00000
   74 Torsion                  1     9    15    12        -135.00000   -0.00000
   75 Torsion                  1     9    16     8           0.00000    0.00000
   76 Torsion                  1     9    16    10        -135.00000   -0.00000
   77 Torsion                  1     9    16    11         135.00000    0.00000
   78 Torsion                  2    10    14     6           0.00000    0.00000
   79 Torsion                  2    10    14    11         135.00000    0.00000
   80 Torsion                  2    10    14    12        -135.00000   -0.00000
   81 Torsion                  2    10    15     7           0.00000    0.00000
   82 Torsion                  2    10    15     9        -135.00000   -0.00000
   83 Torsion                  2    10    15    12         135.00000    0.00000
   84 Torsion                  2    10    16     8           0.00000    0.00000
   85 Torsion                  2    10    16     9         135.00000    0.00000
   86 Torsion                  2    10    16    11        -135.00000   -0.00000
   87 Torsion                  3    11    13     5           0.00000    0.00000
   88 Torsion                  3    11    13     9         135.00000    0.00000
   89 Torsion                  3    11    13    12        -135.00000   -0.00000
   90 Torsion                  3    11    14     6           0.00000    0.00000
   91 Torsion                  3    11    14    10        -135.00000   -0.00000
   92 Torsion                  3    11    14    12         135.00000    0.00000
   93 Torsion                  3    11    16     8           0.00000    0.00000
   94 Torsion                  3    11    16     9        -135.00000   -0.00000
   95 Torsion                  3    11    16    10         135.00000    0.00000
   96 Torsion                  4    12    13     5           0.00000    0.00000
   97 Torsion                  4    12    13     9        -135.00000   -0.00000
   98 Torsion                  4    12    13    11         135.00000    0.00000
   99 Torsion                  4    12    14     6           0.00000    0.00000
  100 Torsion                  4    12    14    10         135.00000    0.00000
  101 Torsion                  4    12    14    11        -135.00000   -0.00000
  102 Torsion                  4    12    15     7           0.00000    0.00000
  103 Torsion                  4    12    15     9         135.00000    0.00000
  104 Torsion                  4    12    15    10        -135.00000   -0.00000
  105 Torsion                  5    13     9    15        -135.00000   -0.00000
  106 Torsion                  5    13     9    16         135.00000    0.00000
  107 Torsion                  5    13    11    14         135.00000    0.00000
  108 Torsion                  5    13    11    16        -135.00000   -0.00000
  109 Torsion                  5    13    12    14        -135.00000   -0.00000
  110 Torsion                  5    13    12    15         135.00000    0.00000
  111 Torsion                  6    14    10    15         135.00000    0.00000
  112 Torsion                  6    14    10    16        -135.00000   -0.00000
  113 Torsion                  6    14    11    13        -135.00000   -0.00000
  114 Torsion                  6    14    11    16         135.00000    0.00000
  115 Torsion                  6    14    12    13         135.00000    0.00000
  116 Torsion                  6    14    12    15        -135.00000   -0.00000
  117 Torsion                  7    15     9    13         135.00000    0.00000
  118 Torsion                  7    15     9    16        -135.00000   -0.00000
  119 Torsion                  7    15    10    14        -135.00000   -0.00000
  120 Torsion                  7    15    10    16         135.00000    0.00000
  121 Torsion                  7    15    12    13        -135.00000   -0.00000
  122 Torsion                  7    15    12    14         135.00000    0.00000
  123 Torsion                  8    16     9    13        -135.00000   -0.00000
  124 Torsion                  8    16     9    15         135.00000    0.00000
  125 Torsion                  8    16    10    14         135.00000    0.00000
  126 Torsion                  8    16    10    15        -135.00000   -0.00000
  127 Torsion                  8    16    11    13         135.00000    0.00000
  128 Torsion                  8    16    11    14        -135.00000   -0.00000
  129 Torsion                  9    13    11    14         -90.00000    0.00000
  130 Torsion                  9    13    11    16           0.00000    0.00000
  131 Torsion                  9    13    12    14          90.00000    0.00000
  132 Torsion                  9    13    12    15           0.00000    0.00000
  133 Torsion                  9    15    10    14          90.00000    0.00000
  134 Torsion                  9    15    10    16           0.00000    0.00000
  135 Torsion                  9    15    12    13           0.00000    0.00000
  136 Torsion                  9    15    12    14         -90.00000    0.00000
  137 Torsion                  9    16    10    14         -90.00000    0.00000
  138 Torsion                  9    16    10    15           0.00000    0.00000
  139 Torsion                  9    16    11    13           0.00000    0.00000
  140 Torsion                  9    16    11    14          90.00000    0.00000
  141 Torsion                 10    14    11    13          90.00000    0.00000
  142 Torsion                 10    14    11    16           0.00000    0.00000
  143 Torsion                 10    14    12    13         -90.00000    0.00000
  144 Torsion                 10    14    12    15           0.00000    0.00000
  145 Torsion                 10    15     9    13         -90.00000    0.00000
  146 Torsion                 10    15     9    16           0.00000    0.00000
  147 Torsion                 10    15    12    13          90.00000    0.00000
  148 Torsion                 10    15    12    14           0.00000    0.00000
  149 Torsion                 10    16     9    13          90.00000    0.00000
  150 Torsion                 10    16     9    15           0.00000    0.00000
  151 Torsion                 10    16    11    13         -90.00000    0.00000
  152 Torsion                 10    16    11    14           0.00000    0.00000
  153 Torsion                 11    13     9    15          90.00000    0.00000
  154 Torsion                 11    13     9    16           0.00000    0.00000
  155 Torsion                 11    13    12    14           0.00000    0.00000
  156 Torsion                 11    13    12    15         -90.00000    0.00000
  157 Torsion                 11    14    10    15         -90.00000    0.00000
  158 Torsion                 11    14    10    16           0.00000    0.00000
  159 Torsion                 11    14    12    13           0.00000    0.00000
  160 Torsion                 11    14    12    15          90.00000    0.00000
  161 Torsion                 11    16     9    13           0.00000    0.00000
  162 Torsion                 11    16     9    15         -90.00000    0.00000
  163 Torsion                 11    16    10    14           0.00000    0.00000
  164 Torsion                 11    16    10    15          90.00000    0.00000
  165 Torsion                 12    13     9    15           0.00000    0.00000
  166 Torsion                 12    13     9    16         -90.00000    0.00000
  167 Torsion                 12    13    11    14           0.00000    0.00000
  168 Torsion                 12    13    11    16          90.00000    0.00000
  169 Torsion                 12    14    10    15           0.00000    0.00000
  170 Torsion                 12    14    10    16          90.00000    0.00000
  171 Torsion                 12    14    11    13           0.00000    0.00000
  172 Torsion                 12    14    11    16         -90.00000    0.00000
  173 Torsion                 12    15     9    13           0.00000    0.00000
  174 Torsion                 12    15     9    16          90.00000    0.00000
  175 Torsion                 12    15    10    14           0.00000    0.00000
  176 Torsion                 12    15    10    16         -90.00000    0.00000

 ==============================================================================
                                internuclear distances
 ------------------------------------------------------------------------------
       center one      |      center two      | atomic units |  angstroms
 ------------------------------------------------------------------------------
    9 C                |   1 H                |     2.03922  |     1.07911
   10 C                |   2 H                |     2.03922  |     1.07911
   11 C                |   3 H                |     2.03922  |     1.07911
   12 C                |   4 H                |     2.03922  |     1.07911
   13 C                |   5 H                |     2.03922  |     1.07911
   13 C                |   9 C                |     2.94313  |     1.55744
   13 C                |  11 C                |     2.94313  |     1.55744
   13 C                |  12 C                |     2.94313  |     1.55744
   14 C                |   6 H                |     2.03922  |     1.07911
   14 C                |  10 C                |     2.94313  |     1.55744
   14 C                |  11 C                |     2.94313  |     1.55744
   14 C                |  12 C                |     2.94313  |     1.55744
   15 C                |   7 H                |     2.03922  |     1.07911
   15 C                |   9 C                |     2.94313  |     1.55744
   15 C                |  10 C                |     2.94313  |     1.55744
   15 C                |  12 C                |     2.94313  |     1.55744
   16 C                |   8 H                |     2.03922  |     1.07911
   16 C                |   9 C                |     2.94313  |     1.55744
   16 C                |  10 C                |     2.94313  |     1.55744
   16 C                |  11 C                |     2.94313  |     1.55744
 ------------------------------------------------------------------------------
                         number of included internuclear distances:         20
 ==============================================================================



 ==============================================================================
                                 internuclear angles
 ------------------------------------------------------------------------------
        center 1       |       center 2       |       center 3       |  degrees
 ------------------------------------------------------------------------------
    1 H                |   9 C                |  13 C                |   125.26
    1 H                |   9 C                |  15 C                |   125.26
    1 H                |   9 C                |  16 C                |   125.26
   13 C                |   9 C                |  15 C                |    90.00
   13 C                |   9 C                |  16 C                |    90.00
   15 C                |   9 C                |  16 C                |    90.00
    2 H                |  10 C                |  14 C                |   125.26
    2 H                |  10 C                |  15 C                |   125.26
    2 H                |  10 C                |  16 C                |   125.26
   14 C                |  10 C                |  15 C                |    90.00
   14 C                |  10 C                |  16 C                |    90.00
   15 C                |  10 C                |  16 C                |    90.00
    3 H                |  11 C                |  13 C                |   125.26
    3 H                |  11 C                |  14 C                |   125.26
    3 H                |  11 C                |  16 C                |   125.26
   13 C                |  11 C                |  14 C                |    90.00
   13 C                |  11 C                |  16 C                |    90.00
   14 C                |  11 C                |  16 C                |    90.00
    4 H                |  12 C                |  13 C                |   125.26
    4 H                |  12 C                |  14 C                |   125.26
    4 H                |  12 C                |  15 C                |   125.26
   13 C                |  12 C                |  14 C                |    90.00
   13 C                |  12 C                |  15 C                |    90.00
   14 C                |  12 C                |  15 C                |    90.00
    5 H                |  13 C                |   9 C                |   125.26
    5 H                |  13 C                |  11 C                |   125.26
    5 H                |  13 C                |  12 C                |   125.26
    9 C                |  13 C                |  11 C                |    90.00
    9 C                |  13 C                |  12 C                |    90.00
   11 C                |  13 C                |  12 C                |    90.00
    6 H                |  14 C                |  10 C                |   125.26
    6 H                |  14 C                |  11 C                |   125.26
    6 H                |  14 C                |  12 C                |   125.26
   10 C                |  14 C                |  11 C                |    90.00
   10 C                |  14 C                |  12 C                |    90.00
   11 C                |  14 C                |  12 C                |    90.00
    7 H                |  15 C                |   9 C                |   125.26
    7 H                |  15 C                |  10 C                |   125.26
    7 H                |  15 C                |  12 C                |   125.26
    9 C                |  15 C                |  10 C                |    90.00
    9 C                |  15 C                |  12 C                |    90.00
   10 C                |  15 C                |  12 C                |    90.00
    8 H                |  16 C                |   9 C                |   125.26
    8 H                |  16 C                |  10 C                |   125.26
    8 H                |  16 C                |  11 C                |   125.26
    9 C                |  16 C                |  10 C                |    90.00
    9 C                |  16 C                |  11 C                |    90.00
   10 C                |  16 C                |  11 C                |    90.00
 ------------------------------------------------------------------------------
                            number of included internuclear angles:         48
 ==============================================================================




 Task  times  cpu:      183.4s     wall:      274.9s


                                NWChem Input Module
                                -------------------


 Summary of allocated global arrays
-----------------------------------
  No active global arrays



                         GA Statistics for process    0
                         ------------------------------

       create   destroy   get      put      acc     scatter   gather  read&inc
calls:  563      563     1.62e+05 3.62e+04 2.46e+05    0        0     7004     
number of processes/call 1.19e+00 1.08e+00 1.00e+00 0.00e+00 0.00e+00
bytes total:             6.54e+08 1.62e+08 8.51e+08 0.00e+00 0.00e+00 5.60e+04
bytes remote:            1.37e+08 2.55e+07 6.48e+07 0.00e+00 0.00e+00 0.00e+00
Max memory consumed for GA by this process: 6379392 bytes

MA_summarize_allocated_blocks: starting scan ...
MA_summarize_allocated_blocks: scan completed: 0 heap blocks, 0 stack blocks
MA usage statistics:

	allocation statistics:
					      heap	     stack
					      ----	     -----
	current number of blocks	         0	         0
	maximum number of blocks	        20	        29
	current total bytes		         0	         0
	maximum total bytes		 211469200	  42755496
	maximum total K-bytes		    211470	     42756
	maximum total M-bytes		       212	        43


                                     CITATION
                                     --------
                Please cite the following reference when publishing
                           results obtained with NWChem:

                 M. Valiev, E.J. Bylaska, N. Govind, K. Kowalski,
              T.P. Straatsma, H.J.J. van Dam, D. Wang, J. Nieplocha,
                        E. Apra, T.L. Windus, W.A. de Jong
                 "NWChem: a comprehensive and scalable open-source
                  solution for large scale molecular simulations"
                      Comput. Phys. Commun. 181, 1477 (2010)
                           doi:10.1016/j.cpc.2010.04.018

                                      AUTHORS
                                      -------
          E. Apra, E. J. Bylaska, W. A. de Jong, N. Govind, K. Kowalski,
       T. P. Straatsma, M. Valiev, H. J. J. van Dam, D. Wang, T. L. Windus,
        J. Hammond, J. Autschbach, K. Bhaskaran-Nair, J. Brabec, K. Lopata,
        S. Krishnamoorthy, W. Ma, M. Klemm, O. Villa, Y. Chen, V. Anisimov,
    F. Aquino, S. Hirata, M. T. Hackler, T. Risthaus, M. Malagoli, A. Marenich,
   A. Otero-de-la-Roza, J. Mullin, P. Nichols, R. Peverati, J. Pittner, Y. Zhao,
         P.-D. Fan, A. Fonari, R. J. Harrison, M. Dupuis, D. Silverstein,
    D. M. A. Smith, J. Nieplocha, V. Tipparaju, M. Krishnan, B. E. Van Kuiken,
        A. Vazquez-Mayagoitia, L. Jensen, M. Swart, Q. Wu, T. Van Voorhis,
     A. A. Auer, M. Nooijen, L. D. Crosby, E. Brown, G. Cisneros, G. I. Fann,
   H. Fruchtl, J. Garza, K. Hirao, R. A. Kendall, J. A. Nichols, K. Tsemekhman,
    K. Wolinski, J. Anchell, D. E. Bernholdt, P. Borowski, T. Clark, D. Clerc,
   H. Dachsel, M. J. O. Deegan, K. Dyall, D. Elwood, E. Glendening, M. Gutowski,
   A. C. Hess, J. Jaffe, B. G. Johnson, J. Ju, R. Kobayashi, R. Kutteh, Z. Lin,
   R. Littlefield, X. Long, B. Meng, T. Nakajima, S. Niu, L. Pollack, M. Rosing,
   K. Glaesemann, G. Sandrone, M. Stave, H. Taylor, G. Thomas, J. H. van Lenthe,
                               A. T. Wong, Z. Zhang.

 Total times  cpu:      183.6s     wall:      275.3s
