 argument  1 = cubane.nw
                                         
                                         


              Northwest Computational Chemistry Package (NWChem) 6.6
              ------------------------------------------------------


                    Environmental Molecular Sciences Laboratory
                       Pacific Northwest National Laboratory
                                Richland, WA 99352

                              Copyright (c) 1994-2015
                       Pacific Northwest National Laboratory
                            Battelle Memorial Institute

             NWChem is an open-source computational chemistry package
                        distributed under the terms of the
                      Educational Community License (ECL) 2.0
             A copy of the license is included with this distribution
                              in the LICENSE.TXT file

                                  ACKNOWLEDGMENT
                                  --------------

            This software and its documentation were developed at the
            EMSL at Pacific Northwest National Laboratory, a multiprogram
            national laboratory, operated for the U.S. Department of Energy
            by Battelle under Contract Number DE-AC05-76RL01830. Support
            for this work was provided by the Department of Energy Office
            of Biological and Environmental Research, Office of Basic
            Energy Sciences, and the Office of Advanced Scientific Computing.


           Job information
           ---------------

    hostname        = konkov-work
    program         = nwchem
    date            = Mon Feb 27 11:27:34 2017

    compiled        = Mon_Feb_15_08:24:17_2016
    source          = /build/nwchem-MF0R1k/nwchem-6.6+r27746
    nwchem branch   = 6.6
    nwchem revision = 27746
    ga revision     = 10594
    input           = cubane.nw
    prefix          = cubane.
    data base       = ./cubane.db
    status          = startup
    nproc           =        1
    time left       =     -1s



           Memory information
           ------------------

    heap     =   13107194 doubles =    100.0 Mbytes
    stack    =   13107199 doubles =    100.0 Mbytes
    global   =  262144000 doubles =   2000.0 Mbytes (distinct from heap & stack)
    total    =  288358393 doubles =   2200.0 Mbytes
    verify   = yes
    hardfail = no 


           Directory information
           ---------------------

  0 permanent = .
  0 scratch   = .




                                NWChem Input Module
                                -------------------


                             cubane CCSD/PC-1 optimize
                             -------------------------

 Scaling coordinates for geometry "geometry" by  1.889725989
 (inverse scale =  0.529177249)

 Turning off AUTOSYM since
 SYMMETRY directive was detected!


          ------
          auto-z
          ------


                             Geometry "geometry" -> ""
                             -------------------------

 Output coordinates in angstroms (scale by  1.889725989 to convert to a.u.)

  No.       Tag          Charge          X              Y              Z
 ---- ---------------- ---------- -------------- -------------- --------------
    1 H                    1.0000     1.41060000     1.41060000     1.41060000
    2 H                    1.0000    -1.41060000    -1.41060000     1.41060000
    3 H                    1.0000    -1.41060000     1.41060000    -1.41060000
    4 H                    1.0000     1.41060000    -1.41060000    -1.41060000
    5 H                    1.0000    -1.41060000    -1.41060000    -1.41060000
    6 H                    1.0000     1.41060000     1.41060000    -1.41060000
    7 H                    1.0000     1.41060000    -1.41060000     1.41060000
    8 H                    1.0000    -1.41060000     1.41060000     1.41060000
    9 C                    6.0000     0.78370000     0.78370000     0.78370000
   10 C                    6.0000    -0.78370000    -0.78370000     0.78370000
   11 C                    6.0000    -0.78370000     0.78370000    -0.78370000
   12 C                    6.0000     0.78370000    -0.78370000    -0.78370000
   13 C                    6.0000    -0.78370000    -0.78370000    -0.78370000
   14 C                    6.0000     0.78370000     0.78370000    -0.78370000
   15 C                    6.0000     0.78370000    -0.78370000     0.78370000
   16 C                    6.0000    -0.78370000     0.78370000     0.78370000

      Atomic Mass 
      ----------- 

      H                  1.007825
      C                 12.000000


 Effective nuclear repulsion energy (a.u.)     367.6689717653

            Nuclear Dipole moment (a.u.) 
            ----------------------------
        X                 Y               Z
 ---------------- ---------------- ----------------
     0.0000000000     0.0000000000     0.0000000000

      Symmetry information
      --------------------

 Group name             D2h       
 Group number             26
 Group order               8
 No. of unique centers     2

      Symmetry unique atoms

     1    9



                                Z-matrix (autoz)
                                -------- 

 Units are Angstrom for bonds and degrees for angles

      Type          Name      I     J     K     L     M      Value
      ----------- --------  ----- ----- ----- ----- ----- ----------
    1 Stretch                  1     9                       1.08582
    2 Stretch                  2    10                       1.08582
    3 Stretch                  3    11                       1.08582
    4 Stretch                  4    12                       1.08582
    5 Stretch                  5    13                       1.08582
    6 Stretch                  6    14                       1.08582
    7 Stretch                  7    15                       1.08582
    8 Stretch                  8    16                       1.08582
    9 Stretch                  9    14                       1.56740
   10 Stretch                  9    15                       1.56740
   11 Stretch                  9    16                       1.56740
   12 Stretch                 10    13                       1.56740
   13 Stretch                 10    15                       1.56740
   14 Stretch                 10    16                       1.56740
   15 Stretch                 11    13                       1.56740
   16 Stretch                 11    14                       1.56740
   17 Stretch                 11    16                       1.56740
   18 Stretch                 12    13                       1.56740
   19 Stretch                 12    14                       1.56740
   20 Stretch                 12    15                       1.56740
   21 Bend                     1     9    14               125.26439
   22 Bend                     1     9    15               125.26439
   23 Bend                     1     9    16               125.26439
   24 Bend                     2    10    13               125.26439
   25 Bend                     2    10    15               125.26439
   26 Bend                     2    10    16               125.26439
   27 Bend                     3    11    13               125.26439
   28 Bend                     3    11    14               125.26439
   29 Bend                     3    11    16               125.26439
   30 Bend                     4    12    13               125.26439
   31 Bend                     4    12    14               125.26439
   32 Bend                     4    12    15               125.26439
   33 Bend                     5    13    10               125.26439
   34 Bend                     5    13    11               125.26439
   35 Bend                     5    13    12               125.26439
   36 Bend                     6    14     9               125.26439
   37 Bend                     6    14    11               125.26439
   38 Bend                     6    14    12               125.26439
   39 Bend                     7    15     9               125.26439
   40 Bend                     7    15    10               125.26439
   41 Bend                     7    15    12               125.26439
   42 Bend                     8    16     9               125.26439
   43 Bend                     8    16    10               125.26439
   44 Bend                     8    16    11               125.26439
   45 Bend                     9    14    11                90.00000
   46 Bend                     9    14    12                90.00000
   47 Bend                     9    15    10                90.00000
   48 Bend                     9    15    12                90.00000
   49 Bend                     9    16    10                90.00000
   50 Bend                     9    16    11                90.00000
   51 Bend                    10    13    11                90.00000
   52 Bend                    10    13    12                90.00000
   53 Bend                    10    15    12                90.00000
   54 Bend                    10    16    11                90.00000
   55 Bend                    11    13    12                90.00000
   56 Bend                    11    14    12                90.00000
   57 Bend                    13    10    15                90.00000
   58 Bend                    13    10    16                90.00000
   59 Bend                    13    11    14                90.00000
   60 Bend                    13    11    16                90.00000
   61 Bend                    13    12    14                90.00000
   62 Bend                    13    12    15                90.00000
   63 Bend                    14     9    15                90.00000
   64 Bend                    14     9    16                90.00000
   65 Bend                    14    11    16                90.00000
   66 Bend                    14    12    15                90.00000
   67 Bend                    15     9    16                90.00000
   68 Bend                    15    10    16                90.00000
   69 Torsion                  1     9    14     6           0.00000
   70 Torsion                  1     9    14    11        -135.00000
   71 Torsion                  1     9    14    12         135.00000
   72 Torsion                  1     9    15     7           0.00000
   73 Torsion                  1     9    15    10         135.00000
   74 Torsion                  1     9    15    12        -135.00000
   75 Torsion                  1     9    16     8           0.00000
   76 Torsion                  1     9    16    10        -135.00000
   77 Torsion                  1     9    16    11         135.00000
   78 Torsion                  2    10    13     5           0.00000
   79 Torsion                  2    10    13    11         135.00000
   80 Torsion                  2    10    13    12        -135.00000
   81 Torsion                  2    10    15     7           0.00000
   82 Torsion                  2    10    15     9        -135.00000
   83 Torsion                  2    10    15    12         135.00000
   84 Torsion                  2    10    16     8           0.00000
   85 Torsion                  2    10    16     9         135.00000
   86 Torsion                  2    10    16    11        -135.00000
   87 Torsion                  3    11    13     5           0.00000
   88 Torsion                  3    11    13    10        -135.00000
   89 Torsion                  3    11    13    12         135.00000
   90 Torsion                  3    11    14     6           0.00000
   91 Torsion                  3    11    14     9         135.00000
   92 Torsion                  3    11    14    12        -135.00000
   93 Torsion                  3    11    16     8           0.00000
   94 Torsion                  3    11    16     9        -135.00000
   95 Torsion                  3    11    16    10         135.00000
   96 Torsion                  4    12    13     5           0.00000
   97 Torsion                  4    12    13    10         135.00000
   98 Torsion                  4    12    13    11        -135.00000
   99 Torsion                  4    12    14     6           0.00000
  100 Torsion                  4    12    14     9        -135.00000
  101 Torsion                  4    12    14    11         135.00000
  102 Torsion                  4    12    15     7           0.00000
  103 Torsion                  4    12    15     9         135.00000
  104 Torsion                  4    12    15    10        -135.00000
  105 Torsion                  5    13    10    15         135.00000
  106 Torsion                  5    13    10    16        -135.00000
  107 Torsion                  5    13    11    14        -135.00000
  108 Torsion                  5    13    11    16         135.00000
  109 Torsion                  5    13    12    14         135.00000
  110 Torsion                  5    13    12    15        -135.00000
  111 Torsion                  6    14     9    15        -135.00000
  112 Torsion                  6    14     9    16         135.00000
  113 Torsion                  6    14    11    13         135.00000
  114 Torsion                  6    14    11    16        -135.00000
  115 Torsion                  6    14    12    13        -135.00000
  116 Torsion                  6    14    12    15         135.00000
  117 Torsion                  7    15     9    14         135.00000
  118 Torsion                  7    15     9    16        -135.00000
  119 Torsion                  7    15    10    13        -135.00000
  120 Torsion                  7    15    10    16         135.00000
  121 Torsion                  7    15    12    13         135.00000
  122 Torsion                  7    15    12    14        -135.00000
  123 Torsion                  8    16     9    14        -135.00000
  124 Torsion                  8    16     9    15         135.00000
  125 Torsion                  8    16    10    13         135.00000
  126 Torsion                  8    16    10    15        -135.00000
  127 Torsion                  8    16    11    13        -135.00000
  128 Torsion                  8    16    11    14         135.00000
  129 Torsion                  9    14    11    13         -90.00000
  130 Torsion                  9    14    11    16           0.00000
  131 Torsion                  9    14    12    13          90.00000
  132 Torsion                  9    14    12    15           0.00000
  133 Torsion                  9    15    10    13          90.00000
  134 Torsion                  9    15    10    16           0.00000
  135 Torsion                  9    15    12    13         -90.00000
  136 Torsion                  9    15    12    14           0.00000
  137 Torsion                  9    16    10    13         -90.00000
  138 Torsion                  9    16    10    15           0.00000
  139 Torsion                  9    16    11    13          90.00000
  140 Torsion                  9    16    11    14           0.00000
  141 Torsion                 10    13    11    14          90.00000
  142 Torsion                 10    13    11    16           0.00000
  143 Torsion                 10    13    12    14         -90.00000
  144 Torsion                 10    13    12    15           0.00000
  145 Torsion                 10    15     9    14         -90.00000
  146 Torsion                 10    15     9    16           0.00000
  147 Torsion                 10    15    12    13           0.00000
  148 Torsion                 10    15    12    14          90.00000
  149 Torsion                 10    16     9    14          90.00000
  150 Torsion                 10    16     9    15           0.00000
  151 Torsion                 10    16    11    13           0.00000
  152 Torsion                 10    16    11    14         -90.00000
  153 Torsion                 11    13    10    15         -90.00000
  154 Torsion                 11    13    10    16           0.00000
  155 Torsion                 11    13    12    14           0.00000
  156 Torsion                 11    13    12    15          90.00000
  157 Torsion                 11    14     9    15          90.00000
  158 Torsion                 11    14     9    16           0.00000
  159 Torsion                 11    14    12    13           0.00000
  160 Torsion                 11    14    12    15         -90.00000
  161 Torsion                 11    16     9    14           0.00000
  162 Torsion                 11    16     9    15         -90.00000
  163 Torsion                 11    16    10    13           0.00000
  164 Torsion                 11    16    10    15          90.00000
  165 Torsion                 12    13    10    15           0.00000
  166 Torsion                 12    13    10    16          90.00000
  167 Torsion                 12    13    11    14           0.00000
  168 Torsion                 12    13    11    16         -90.00000
  169 Torsion                 12    14     9    15           0.00000
  170 Torsion                 12    14     9    16         -90.00000
  171 Torsion                 12    14    11    13           0.00000
  172 Torsion                 12    14    11    16          90.00000
  173 Torsion                 12    15     9    14           0.00000
  174 Torsion                 12    15     9    16          90.00000
  175 Torsion                 12    15    10    13           0.00000
  176 Torsion                 12    15    10    16         -90.00000


            XYZ format geometry
            -------------------
    16
 geometry
 H                     1.41060000     1.41060000     1.41060000
 H                    -1.41060000    -1.41060000     1.41060000
 H                    -1.41060000     1.41060000    -1.41060000
 H                     1.41060000    -1.41060000    -1.41060000
 H                    -1.41060000    -1.41060000    -1.41060000
 H                     1.41060000     1.41060000    -1.41060000
 H                     1.41060000    -1.41060000     1.41060000
 H                    -1.41060000     1.41060000     1.41060000
 C                     0.78370000     0.78370000     0.78370000
 C                    -0.78370000    -0.78370000     0.78370000
 C                    -0.78370000     0.78370000    -0.78370000
 C                     0.78370000    -0.78370000    -0.78370000
 C                    -0.78370000    -0.78370000    -0.78370000
 C                     0.78370000     0.78370000    -0.78370000
 C                     0.78370000    -0.78370000     0.78370000
 C                    -0.78370000     0.78370000     0.78370000

 ==============================================================================
                                internuclear distances
 ------------------------------------------------------------------------------
       center one      |      center two      | atomic units |  angstroms
 ------------------------------------------------------------------------------
    9 C                |   1 H                |     2.05191  |     1.08582
   10 C                |   2 H                |     2.05191  |     1.08582
   11 C                |   3 H                |     2.05191  |     1.08582
   12 C                |   4 H                |     2.05191  |     1.08582
   13 C                |   5 H                |     2.05191  |     1.08582
   13 C                |  10 C                |     2.96196  |     1.56740
   13 C                |  11 C                |     2.96196  |     1.56740
   13 C                |  12 C                |     2.96196  |     1.56740
   14 C                |   6 H                |     2.05191  |     1.08582
   14 C                |   9 C                |     2.96196  |     1.56740
   14 C                |  11 C                |     2.96196  |     1.56740
   14 C                |  12 C                |     2.96196  |     1.56740
   15 C                |   7 H                |     2.05191  |     1.08582
   15 C                |   9 C                |     2.96196  |     1.56740
   15 C                |  10 C                |     2.96196  |     1.56740
   15 C                |  12 C                |     2.96196  |     1.56740
   16 C                |   8 H                |     2.05191  |     1.08582
   16 C                |   9 C                |     2.96196  |     1.56740
   16 C                |  10 C                |     2.96196  |     1.56740
   16 C                |  11 C                |     2.96196  |     1.56740
 ------------------------------------------------------------------------------
                         number of included internuclear distances:         20
 ==============================================================================



 ==============================================================================
                                 internuclear angles
 ------------------------------------------------------------------------------
        center 1       |       center 2       |       center 3       |  degrees
 ------------------------------------------------------------------------------
    1 H                |   9 C                |  14 C                |   125.26
    1 H                |   9 C                |  15 C                |   125.26
    1 H                |   9 C                |  16 C                |   125.26
   14 C                |   9 C                |  15 C                |    90.00
   14 C                |   9 C                |  16 C                |    90.00
   15 C                |   9 C                |  16 C                |    90.00
    2 H                |  10 C                |  13 C                |   125.26
    2 H                |  10 C                |  15 C                |   125.26
    2 H                |  10 C                |  16 C                |   125.26
   13 C                |  10 C                |  15 C                |    90.00
   13 C                |  10 C                |  16 C                |    90.00
   15 C                |  10 C                |  16 C                |    90.00
    3 H                |  11 C                |  13 C                |   125.26
    3 H                |  11 C                |  14 C                |   125.26
    3 H                |  11 C                |  16 C                |   125.26
   13 C                |  11 C                |  14 C                |    90.00
   13 C                |  11 C                |  16 C                |    90.00
   14 C                |  11 C                |  16 C                |    90.00
    4 H                |  12 C                |  13 C                |   125.26
    4 H                |  12 C                |  14 C                |   125.26
    4 H                |  12 C                |  15 C                |   125.26
   13 C                |  12 C                |  14 C                |    90.00
   13 C                |  12 C                |  15 C                |    90.00
   14 C                |  12 C                |  15 C                |    90.00
    5 H                |  13 C                |  10 C                |   125.26
    5 H                |  13 C                |  11 C                |   125.26
    5 H                |  13 C                |  12 C                |   125.26
   10 C                |  13 C                |  11 C                |    90.00
   10 C                |  13 C                |  12 C                |    90.00
   11 C                |  13 C                |  12 C                |    90.00
    6 H                |  14 C                |   9 C                |   125.26
    6 H                |  14 C                |  11 C                |   125.26
    6 H                |  14 C                |  12 C                |   125.26
    9 C                |  14 C                |  11 C                |    90.00
    9 C                |  14 C                |  12 C                |    90.00
   11 C                |  14 C                |  12 C                |    90.00
    7 H                |  15 C                |   9 C                |   125.26
    7 H                |  15 C                |  10 C                |   125.26
    7 H                |  15 C                |  12 C                |   125.26
    9 C                |  15 C                |  10 C                |    90.00
    9 C                |  15 C                |  12 C                |    90.00
   10 C                |  15 C                |  12 C                |    90.00
    8 H                |  16 C                |   9 C                |   125.26
    8 H                |  16 C                |  10 C                |   125.26
    8 H                |  16 C                |  11 C                |   125.26
    9 C                |  16 C                |  10 C                |    90.00
    9 C                |  16 C                |  11 C                |    90.00
   10 C                |  16 C                |  11 C                |    90.00
 ------------------------------------------------------------------------------
                            number of included internuclear angles:         48
 ==============================================================================



  library name resolved from: environment
  library file name is: </home/vladimir/bin/nwchem-6.6/src/basis/libraries/>
  

 **** WARNING Zero Coefficient **** on atom "               C"
 angular momentum value: 0  standard basis set name: "PC-1"
 input line that generated warning:
    87:       0.125260E+04           0.557360E-02           0.000000E+00
  

 **** WARNING Zero Coefficient **** on atom "               C"
 angular momentum value: 0  standard basis set name: "PC-1"
 input line that generated warning:
    92:       0.542580E+00           0.000000E+00           0.534150E+00
  
                      Basis "ao basis" -> "" (spherical)
                      -----
  H (Hydrogen)
  ------------
            Exponent  Coefficients 
       -------------- ---------------------------------------------------------
  1 S  1.22520000E+01  0.022822
  1 S  1.86870000E+00  0.155640
  1 S  4.18210000E-01  0.488980

  2 S  1.06100000E-01  1.000000

  3 P  1.00000000E+00  1.000000

  C (Carbon)
  ----------
            Exponent  Coefficients 
       -------------- ---------------------------------------------------------
  1 S  1.25260000E+03  0.005574
  1 S  1.88570000E+02  0.041496
  1 S  4.28390000E+01  0.182630
  1 S  1.18180000E+01  0.461290
  1 S  3.55670000E+00  0.449310

  2 S  1.88570000E+02 -0.000274
  2 S  4.28390000E+01 -0.002558
  2 S  1.18180000E+01 -0.033375
  2 S  3.55670000E+00 -0.087305
  2 S  5.42580000E-01  0.534150

  3 S  1.60580000E-01  1.000000

  4 P  9.14260000E+00  0.044499
  4 P  1.92980000E+00  0.231080
  4 P  5.25220000E-01  0.512270

  5 P  1.36080000E-01  1.000000

  6 D  8.00000000E-01  1.000000



 Summary of "ao basis" -> "" (spherical)
 ------------------------------------------------------------------------------
       Tag                 Description            Shells   Functions and Types
 ---------------- ------------------------------  ------  ---------------------
 H                            PC-1                   3        5   2s1p
 C                            PC-1                   6       14   3s2p1d




                           NWChem Geometry Optimization
                           ----------------------------




                             cubane CCSD/PC-1 optimize


 maximum gradient threshold         (gmax) =   0.000450
 rms gradient threshold             (grms) =   0.000300
 maximum cartesian step threshold   (xmax) =   0.001800
 rms cartesian step threshold       (xrms) =   0.001200
 fixed trust radius                (trust) =   0.300000
 maximum step size to saddle      (sadstp) =   0.100000
 energy precision                  (eprec) =   1.0D-07
 maximum number of steps          (nptopt) =   20
 initial hessian option           (inhess) =    0
 line search option               (linopt) =    1
 hessian update option            (modupd) =    1
 saddle point option              (modsad) =    0
 initial eigen-mode to follow     (moddir) =    0
 initial variable to follow       (vardir) =    0
 follow first negative mode     (firstneg) =    T
 apply conjugacy                    (opcg) =    F
 source of zmatrix                         =   autoz   


          -------------------
          Energy Minimization
          -------------------


 Names of Z-matrix variables 
    1              2              3              4              5         
    6              7              8              9             10         
   11             12             13             14             15         
   16             17             18             19             20         
   21             22             23             24             25         
   26             27             28             29             30         
   31             32             33             34             35         
   36             37             38             39             40         
   41             42             43             44             45         
   46             47             48             49             50         
   51             52             53             54             55         
   56             57             58             59             60         
   61             62             63             64             65         
   66             67             68             69             70         
   71             72             73             74             75         
   76             77             78             79             80         
   81             82             83             84             85         
   86             87             88             89             90         
   91             92             93             94             95         
   96             97             98             99            100         
  101            102            103            104            105         
  106            107            108            109            110         
  111            112            113            114            115         
  116            117            118            119            120         
  121            122            123            124            125         
  126            127            128            129            130         
  131            132            133            134            135         
  136            137            138            139            140         
  141            142            143            144            145         
  146            147            148            149            150         
  151            152            153            154            155         
  156            157            158            159            160         
  161            162            163            164            165         
  166            167            168            169            170         
  171            172            173            174            175         
  176         

 Variables with the same non-blank name are constrained to be equal


 Using diagonal initial Hessian 
 Scaling for Hessian diagonals: bonds = 1.00  angles = 0.25  torsions = 0.10

          --------
          Step   0
          --------


                         Geometry "geometry" -> "geometry"
                         ---------------------------------

 Output coordinates in angstroms (scale by  1.889725989 to convert to a.u.)

  No.       Tag          Charge          X              Y              Z
 ---- ---------------- ---------- -------------- -------------- --------------
    1 H                    1.0000     1.41060000     1.41060000     1.41060000
    2 H                    1.0000    -1.41060000    -1.41060000     1.41060000
    3 H                    1.0000    -1.41060000     1.41060000    -1.41060000
    4 H                    1.0000     1.41060000    -1.41060000    -1.41060000
    5 H                    1.0000    -1.41060000    -1.41060000    -1.41060000
    6 H                    1.0000     1.41060000     1.41060000    -1.41060000
    7 H                    1.0000     1.41060000    -1.41060000     1.41060000
    8 H                    1.0000    -1.41060000     1.41060000     1.41060000
    9 C                    6.0000     0.78370000     0.78370000     0.78370000
   10 C                    6.0000    -0.78370000    -0.78370000     0.78370000
   11 C                    6.0000    -0.78370000     0.78370000    -0.78370000
   12 C                    6.0000     0.78370000    -0.78370000    -0.78370000
   13 C                    6.0000    -0.78370000    -0.78370000    -0.78370000
   14 C                    6.0000     0.78370000     0.78370000    -0.78370000
   15 C                    6.0000     0.78370000    -0.78370000     0.78370000
   16 C                    6.0000    -0.78370000     0.78370000     0.78370000

      Atomic Mass 
      ----------- 

      H                  1.007825
      C                 12.000000


 Effective nuclear repulsion energy (a.u.)     367.6689717653

            Nuclear Dipole moment (a.u.) 
            ----------------------------
        X                 Y               Z
 ---------------- ---------------- ----------------
     0.0000000000     0.0000000000     0.0000000000

      Symmetry information
      --------------------

 Group name             D2h       
 Group number             26
 Group order               8
 No. of unique centers     2

      Symmetry unique atoms

     1    9

                         NWChem Numerical Gradients Module
                         ---------------------------------


 No. of totally-symmetric internal modes =   6

                                 NWChem SCF Module
                                 -----------------


                             cubane CCSD/PC-1 optimize



  ao basis        = "ao basis"
  functions       =   152
  atoms           =    16
  closed shells   =    28
  open shells     =     0
  charge          =   0.00
  wavefunction    = RHF 
  input vectors   = atomic
  output vectors  = ./cubane.movecs
  use symmetry    = T
  symmetry adapt  = T


 Summary of "ao basis" -> "ao basis" (spherical)
 ------------------------------------------------------------------------------
       Tag                 Description            Shells   Functions and Types
 ---------------- ------------------------------  ------  ---------------------
 H                            PC-1                   3        5   2s1p
 C                            PC-1                   6       14   3s2p1d


      Symmetry analysis of basis
      --------------------------

        ag         19
        au         19
        b1g        19
        b1u        19
        b2g        19
        b2u        19
        b3g        19
        b3u        19


 Forming initial guess at       0.1s


      Superposition of Atomic Density Guess
      -------------------------------------

 Sum of atomic energies:        -305.19922867

      Non-variational initial energy
      ------------------------------

 Total energy =    -311.934181
 1-e energy   =   -1137.585006
 2-e energy   =     457.981853
 HOMO         =      -0.299843
 LUMO         =       0.036129


      Symmetry analysis of molecular orbitals - initial
      -------------------------------------------------


 !! scf_movecs_sym_adapt:   79 vectors were symmetry contaminated

  Symmetry fudging

 !! scf_movecs_sym_adapt:   74 vectors were symmetry contaminated

  Numbering of irreducible representations: 

     1 ag          2 au          3 b1g         4 b1u         5 b2g     
     6 b2u         7 b3g         8 b3u     

  Orbital symmetries:

     1 ag          2 b1u         3 b3u         4 b2u         5 b2g     
     6 b3g         7 b1g         8 au          9 ag         10 b1u     
    11 b2u        12 b3u        13 b1g        14 b3g        15 b2g     
    16 ag         17 au         18 ag         19 ag         20 b2u     
    21 b3u        22 b1u        23 b3u        24 b2u        25 b1u     
    26 b1g        27 b3g        28 b2g        29 b2u        30 b3u     
    31 b1u        32 ag         33 b1u        34 b3u        35 b2u     
    36 b2g        37 b3g        38 b1g     


 Starting SCF solution at       0.5s



 ----------------------------------------------
         Quadratically convergent ROHF

 Convergence threshold     :          1.000E-04
 Maximum no. of iterations :           30
 Final Fock-matrix accuracy:          1.000E-07
 ----------------------------------------------


              iter       energy          gnorm     gmax       time
             ----- ------------------- --------- --------- --------
                 1     -307.2122385518  9.45D-01  2.43D-01      1.6
                 2     -307.2920916106  2.01D-01  5.04D-02      3.2
                 3     -307.2948491043  4.97D-03  1.18D-03      5.5
                 4     -307.2948517302  7.28D-06  2.11D-06      9.5


       Final RHF  results 
       ------------------ 

         Total SCF energy =   -307.294851730151
      One-electron energy =  -1144.139549307959
      Two-electron energy =    469.175725812497
 Nuclear repulsion energy =    367.668971765310

        Time for solution =      8.7s



       Symmetry analysis of molecular orbitals - final
       -----------------------------------------------

  Numbering of irreducible representations: 

     1 ag          2 au          3 b1g         4 b1u         5 b2g     
     6 b2u         7 b3g         8 b3u     

  Orbital symmetries:

     1 ag          2 b2u         3 b3u         4 b1u         5 b3g     
     6 b2g         7 b1g         8 au          9 ag         10 b1u     
    11 b3u        12 b2u        13 b2g        14 b3g        15 b1g     
    16 ag         17 au         18 b3u        19 b2u        20 b1u     
    21 ag         22 ag         23 b3u        24 b2u        25 b1u     
    26 b2g        27 b3g        28 b1g        29 ag         30 b3u     
    31 b2u        32 b1u        33 b2g        34 b3g        35 b1g     
    36 b1u        37 b3u        38 b2u     

             Final eigenvalues
             -----------------

              1      
    1  -11.2134
    2  -11.2129
    3  -11.2129
    4  -11.2129
    5  -11.2124
    6  -11.2124
    7  -11.2124
    8  -11.2118
    9   -1.2568
   10   -0.9875
   11   -0.9875
   12   -0.9875
   13   -0.7738
   14   -0.7738
   15   -0.7738
   16   -0.7163
   17   -0.6463
   18   -0.5872
   19   -0.5872
   20   -0.5872
   21   -0.5841
   22   -0.5841
   23   -0.3957
   24   -0.3957
   25   -0.3957
   26   -0.3910
   27   -0.3910
   28   -0.3910
   29    0.1607
   30    0.1796
   31    0.1796
   32    0.1796
   33    0.2213
   34    0.2213
   35    0.2213
   36    0.2342
   37    0.2342
   38    0.2342

                       ROHF Final Molecular Orbital Analysis
                       -------------------------------------

 Vector    9  Occ=2.000000D+00  E=-1.256796D+00  Symmetry=ag
              MO Center= -3.2D-17, -2.3D-17, -2.2D-17, r^2= 1.6D+00
   Bfn.  Coefficient  Atom+Function         Bfn.  Coefficient  Atom+Function  
  ----- ------------  ---------------      ----- ------------  ---------------
    42      0.125724   9 C  s                56      0.125724  10 C  s         
    70      0.125724  11 C  s                84      0.125724  12 C  s         
    98      0.125724  13 C  s               112      0.125724  14 C  s         
   126      0.125724  15 C  s               140      0.125724  16 C  s         

 Vector   10  Occ=2.000000D+00  E=-9.875169D-01  Symmetry=b1u
              MO Center= -4.9D-17,  5.0D-17, -3.6D-17, r^2= 2.6D+00
   Bfn.  Coefficient  Atom+Function         Bfn.  Coefficient  Atom+Function  
  ----- ------------  ---------------      ----- ------------  ---------------
    43      0.146819   9 C  s                57      0.146819  10 C  s         
    71     -0.146819  11 C  s                85     -0.146819  12 C  s         
    99     -0.146819  13 C  s               113     -0.146819  14 C  s         
   127      0.146819  15 C  s               141      0.146819  16 C  s         

 Vector   11  Occ=2.000000D+00  E=-9.875169D-01  Symmetry=b3u
              MO Center= -3.1D-17, -4.8D-17,  5.7D-17, r^2= 2.6D+00
   Bfn.  Coefficient  Atom+Function         Bfn.  Coefficient  Atom+Function  
  ----- ------------  ---------------      ----- ------------  ---------------
    43      0.146819   9 C  s                57     -0.146819  10 C  s         
    71     -0.146819  11 C  s                85      0.146819  12 C  s         
    99     -0.146819  13 C  s               113      0.146819  14 C  s         
   127      0.146819  15 C  s               141     -0.146819  16 C  s         

 Vector   12  Occ=2.000000D+00  E=-9.875169D-01  Symmetry=b2u
              MO Center= -1.9D-17, -5.9D-17, -5.6D-17, r^2= 2.6D+00
   Bfn.  Coefficient  Atom+Function         Bfn.  Coefficient  Atom+Function  
  ----- ------------  ---------------      ----- ------------  ---------------
    43      0.146819   9 C  s                57     -0.146819  10 C  s         
    71      0.146819  11 C  s                85     -0.146819  12 C  s         
    99     -0.146819  13 C  s               113      0.146819  14 C  s         
   127     -0.146819  15 C  s               141      0.146819  16 C  s         

 Vector   13  Occ=2.000000D+00  E=-7.738061D-01  Symmetry=b2g
              MO Center=  2.8D-16, -1.5D-16,  1.7D-16, r^2= 4.1D+00
   Bfn.  Coefficient  Atom+Function         Bfn.  Coefficient  Atom+Function  
  ----- ------------  ---------------      ----- ------------  ---------------
    43      0.191358   9 C  s                57     -0.191358  10 C  s         
    71      0.191358  11 C  s                85     -0.191358  12 C  s         
    99      0.191358  13 C  s               113     -0.191358  14 C  s         
   127      0.191358  15 C  s               141     -0.191358  16 C  s         

 Vector   14  Occ=2.000000D+00  E=-7.738061D-01  Symmetry=b3g
              MO Center=  3.0D-17, -1.4D-16,  9.8D-17, r^2= 4.1D+00
   Bfn.  Coefficient  Atom+Function         Bfn.  Coefficient  Atom+Function  
  ----- ------------  ---------------      ----- ------------  ---------------
    43      0.191358   9 C  s                57     -0.191358  10 C  s         
    71     -0.191358  11 C  s                85      0.191358  12 C  s         
    99      0.191358  13 C  s               113     -0.191358  14 C  s         
   127     -0.191358  15 C  s               141      0.191358  16 C  s         

 Vector   15  Occ=2.000000D+00  E=-7.738061D-01  Symmetry=b1g
              MO Center= -7.1D-17,  1.8D-17, -3.1D-17, r^2= 4.1D+00
   Bfn.  Coefficient  Atom+Function         Bfn.  Coefficient  Atom+Function  
  ----- ------------  ---------------      ----- ------------  ---------------
    43      0.191358   9 C  s                57      0.191358  10 C  s         
    71     -0.191358  11 C  s                85     -0.191358  12 C  s         
    99      0.191358  13 C  s               113      0.191358  14 C  s         
   127     -0.191358  15 C  s               141     -0.191358  16 C  s         

 Vector   16  Occ=2.000000D+00  E=-7.162970D-01  Symmetry=ag
              MO Center= -5.8D-16,  2.2D-16, -1.9D-16, r^2= 4.4D+00
   Bfn.  Coefficient  Atom+Function         Bfn.  Coefficient  Atom+Function  
  ----- ------------  ---------------      ----- ------------  ---------------
     1      0.130671   1 H  s                 6      0.130671   2 H  s         
    11      0.130671   3 H  s                16      0.130671   4 H  s         
    21      0.130671   5 H  s                26      0.130671   6 H  s         
    31      0.130671   7 H  s                36      0.130671   8 H  s         

 Vector   17  Occ=2.000000D+00  E=-6.463188D-01  Symmetry=au
              MO Center= -4.6D-16,  1.4D-17,  1.9D-16, r^2= 5.1D+00
   Bfn.  Coefficient  Atom+Function         Bfn.  Coefficient  Atom+Function  
  ----- ------------  ---------------      ----- ------------  ---------------
     1      0.161620   1 H  s                 6      0.161620   2 H  s         
    11      0.161620   3 H  s                16      0.161620   4 H  s         
    21     -0.161620   5 H  s                26     -0.161620   6 H  s         
    31     -0.161620   7 H  s                36     -0.161620   8 H  s         

 Vector   18  Occ=2.000000D+00  E=-5.871590D-01  Symmetry=b3u
              MO Center=  2.5D-16, -6.7D-17,  1.6D-16, r^2= 4.2D+00
   Bfn.  Coefficient  Atom+Function         Bfn.  Coefficient  Atom+Function  
  ----- ------------  ---------------      ----- ------------  ---------------
     1      0.142144   1 H  s                 6     -0.142144   2 H  s         
    11     -0.142144   3 H  s                16      0.142144   4 H  s         
    21     -0.142144   5 H  s                26      0.142144   6 H  s         
    31      0.142144   7 H  s                36     -0.142144   8 H  s         

 Vector   19  Occ=2.000000D+00  E=-5.871590D-01  Symmetry=b2u
              MO Center= -1.8D-16, -1.5D-16,  5.6D-17, r^2= 4.2D+00
   Bfn.  Coefficient  Atom+Function         Bfn.  Coefficient  Atom+Function  
  ----- ------------  ---------------      ----- ------------  ---------------
     1      0.142144   1 H  s                 6     -0.142144   2 H  s         
    11      0.142144   3 H  s                16     -0.142144   4 H  s         
    21     -0.142144   5 H  s                26      0.142144   6 H  s         
    31     -0.142144   7 H  s                36      0.142144   8 H  s         

 Vector   20  Occ=2.000000D+00  E=-5.871590D-01  Symmetry=b1u
              MO Center= -3.8D-17,  4.4D-18,  9.4D-17, r^2= 4.2D+00
   Bfn.  Coefficient  Atom+Function         Bfn.  Coefficient  Atom+Function  
  ----- ------------  ---------------      ----- ------------  ---------------
     1      0.142144   1 H  s                 6      0.142144   2 H  s         
    11     -0.142144   3 H  s                16     -0.142144   4 H  s         
    21     -0.142144   5 H  s                26     -0.142144   6 H  s         
    31      0.142144   7 H  s                36      0.142144   8 H  s         

 Vector   21  Occ=2.000000D+00  E=-5.840623D-01  Symmetry=ag
              MO Center= -5.2D-17,  2.9D-16, -6.9D-17, r^2= 2.6D+00
   Bfn.  Coefficient  Atom+Function         Bfn.  Coefficient  Atom+Function  
  ----- ------------  ---------------      ----- ------------  ---------------
    44      0.152272   9 C  px               45     -0.152381   9 C  py        
    58     -0.152272  10 C  px               59      0.152381  10 C  py        
    72     -0.152272  11 C  px               73     -0.152381  11 C  py        
    86      0.152272  12 C  px               87      0.152381  12 C  py        
   100     -0.152272  13 C  px              101      0.152381  13 C  py        

 Vector   22  Occ=2.000000D+00  E=-5.840623D-01  Symmetry=ag
              MO Center= -8.1D-17, -1.1D-17, -2.7D-17, r^2= 2.6D+00
   Bfn.  Coefficient  Atom+Function         Bfn.  Coefficient  Atom+Function  
  ----- ------------  ---------------      ----- ------------  ---------------
    46      0.175892   9 C  pz               60      0.175892  10 C  pz        
    74     -0.175892  11 C  pz               88     -0.175892  12 C  pz        
   102     -0.175892  13 C  pz              116     -0.175892  14 C  pz        
   130      0.175892  15 C  pz              144      0.175892  16 C  pz        

 Vector   23  Occ=2.000000D+00  E=-3.956780D-01  Symmetry=b3u
              MO Center=  3.9D-17,  6.8D-17, -2.0D-17, r^2= 2.9D+00
   Bfn.  Coefficient  Atom+Function         Bfn.  Coefficient  Atom+Function  
  ----- ------------  ---------------      ----- ------------  ---------------
    45      0.168875   9 C  py               46     -0.168875   9 C  pz        
    59      0.168875  10 C  py               60      0.168875  10 C  pz        
    73     -0.168875  11 C  py               74     -0.168875  11 C  pz        
    87     -0.168875  12 C  py               88      0.168875  12 C  pz        
   101      0.168875  13 C  py              102     -0.168875  13 C  pz        

 Vector   24  Occ=2.000000D+00  E=-3.956780D-01  Symmetry=b2u
              MO Center=  3.2D-17, -5.2D-16, -8.9D-17, r^2= 2.9D+00
   Bfn.  Coefficient  Atom+Function         Bfn.  Coefficient  Atom+Function  
  ----- ------------  ---------------      ----- ------------  ---------------
    44      0.168875   9 C  px               46     -0.168875   9 C  pz        
    58      0.168875  10 C  px               60      0.168875  10 C  pz        
    72     -0.168875  11 C  px               74      0.168875  11 C  pz        
    86     -0.168875  12 C  px               88     -0.168875  12 C  pz        
   100      0.168875  13 C  px              102     -0.168875  13 C  pz        

 Vector   25  Occ=2.000000D+00  E=-3.956780D-01  Symmetry=b1u
              MO Center= -3.0D-18, -5.9D-18, -3.5D-16, r^2= 2.9D+00
   Bfn.  Coefficient  Atom+Function         Bfn.  Coefficient  Atom+Function  
  ----- ------------  ---------------      ----- ------------  ---------------
    44      0.168875   9 C  px               45     -0.168875   9 C  py        
    58     -0.168875  10 C  px               59      0.168875  10 C  py        
    72      0.168875  11 C  px               73      0.168875  11 C  py        
    86     -0.168875  12 C  px               87     -0.168875  12 C  py        
   100      0.168875  13 C  px              101     -0.168875  13 C  py        

 Vector   26  Occ=2.000000D+00  E=-3.910145D-01  Symmetry=b2g
              MO Center= -1.7D-17,  1.5D-16, -3.9D-17, r^2= 3.5D+00
   Bfn.  Coefficient  Atom+Function         Bfn.  Coefficient  Atom+Function  
  ----- ------------  ---------------      ----- ------------  ---------------
    45      0.213637   9 C  py               59      0.213637  10 C  py        
    73      0.213637  11 C  py               87      0.213637  12 C  py        
   101     -0.213637  13 C  py              115     -0.213637  14 C  py        
   129     -0.213637  15 C  py              143     -0.213637  16 C  py        
    48      0.187719   9 C  py               62      0.187719  10 C  py        

 Vector   27  Occ=2.000000D+00  E=-3.910145D-01  Symmetry=b3g
              MO Center= -6.1D-17,  8.5D-17, -6.5D-17, r^2= 3.5D+00
   Bfn.  Coefficient  Atom+Function         Bfn.  Coefficient  Atom+Function  
  ----- ------------  ---------------      ----- ------------  ---------------
    44      0.213637   9 C  px               58      0.213637  10 C  px        
    72      0.213637  11 C  px               86      0.213637  12 C  px        
   100     -0.213637  13 C  px              114     -0.213637  14 C  px        
   128     -0.213637  15 C  px              142     -0.213637  16 C  px        
    47      0.187719   9 C  px               61      0.187719  10 C  px        

 Vector   28  Occ=2.000000D+00  E=-3.910145D-01  Symmetry=b1g
              MO Center=  1.1D-16,  1.6D-16,  5.9D-17, r^2= 3.5D+00
   Bfn.  Coefficient  Atom+Function         Bfn.  Coefficient  Atom+Function  
  ----- ------------  ---------------      ----- ------------  ---------------
    46      0.213637   9 C  pz               60      0.213637  10 C  pz        
    74      0.213637  11 C  pz               88      0.213637  12 C  pz        
   102     -0.213637  13 C  pz              116     -0.213637  14 C  pz        
   130     -0.213637  15 C  pz              144     -0.213637  16 C  pz        
    49      0.187719   9 C  pz               63      0.187719  10 C  pz        

 Vector   29  Occ=0.000000D+00  E= 1.606787D-01  Symmetry=ag
              MO Center= -1.0D-16,  1.4D-16,  1.4D-15, r^2= 1.1D+01
   Bfn.  Coefficient  Atom+Function         Bfn.  Coefficient  Atom+Function  
  ----- ------------  ---------------      ----- ------------  ---------------
     2      0.673490   1 H  s                 7      0.673490   2 H  s         
    12      0.673490   3 H  s                17      0.673490   4 H  s         
    22      0.673490   5 H  s                27      0.673490   6 H  s         
    32      0.673490   7 H  s                37      0.673490   8 H  s         
    43     -0.591808   9 C  s                57     -0.591808  10 C  s         

 Vector   30  Occ=0.000000D+00  E= 1.795692D-01  Symmetry=b3u
              MO Center=  8.7D-17, -5.4D-16, -1.4D-15, r^2= 8.6D+00
   Bfn.  Coefficient  Atom+Function         Bfn.  Coefficient  Atom+Function  
  ----- ------------  ---------------      ----- ------------  ---------------
    43      0.670626   9 C  s                57     -0.670626  10 C  s         
    71     -0.670626  11 C  s                85      0.670626  12 C  s         
    99     -0.670626  13 C  s               113      0.670626  14 C  s         
   127      0.670626  15 C  s               141     -0.670626  16 C  s         
     2     -0.548912   1 H  s                 7      0.548912   2 H  s         

 Vector   31  Occ=0.000000D+00  E= 1.795692D-01  Symmetry=b2u
              MO Center=  1.4D-16, -3.4D-16,  3.7D-16, r^2= 8.6D+00
   Bfn.  Coefficient  Atom+Function         Bfn.  Coefficient  Atom+Function  
  ----- ------------  ---------------      ----- ------------  ---------------
    43      0.670626   9 C  s                57     -0.670626  10 C  s         
    71      0.670626  11 C  s                85     -0.670626  12 C  s         
    99     -0.670626  13 C  s               113      0.670626  14 C  s         
   127     -0.670626  15 C  s               141      0.670626  16 C  s         
     2     -0.548912   1 H  s                 7      0.548912   2 H  s         

 Vector   32  Occ=0.000000D+00  E= 1.795692D-01  Symmetry=b1u
              MO Center= -5.5D-16,  5.0D-16, -1.4D-15, r^2= 8.6D+00
   Bfn.  Coefficient  Atom+Function         Bfn.  Coefficient  Atom+Function  
  ----- ------------  ---------------      ----- ------------  ---------------
    43      0.670626   9 C  s                57      0.670626  10 C  s         
    71     -0.670626  11 C  s                85     -0.670626  12 C  s         
    99     -0.670626  13 C  s               113     -0.670626  14 C  s         
   127      0.670626  15 C  s               141      0.670626  16 C  s         
     2     -0.548912   1 H  s                 7     -0.548912   2 H  s         

 Vector   33  Occ=0.000000D+00  E= 2.212648D-01  Symmetry=b2g
              MO Center= -3.8D-15, -2.9D-15,  2.7D-15, r^2= 1.3D+01
   Bfn.  Coefficient  Atom+Function         Bfn.  Coefficient  Atom+Function  
  ----- ------------  ---------------      ----- ------------  ---------------
     2      1.073267   1 H  s                 7     -1.073267   2 H  s         
    12      1.073267   3 H  s                17     -1.073267   4 H  s         
    22      1.073267   5 H  s                27     -1.073267   6 H  s         
    32      1.073267   7 H  s                37     -1.073267   8 H  s         
    48     -0.561632   9 C  py               62     -0.561632  10 C  py        

 Vector   34  Occ=0.000000D+00  E= 2.212648D-01  Symmetry=b3g
              MO Center= -2.3D-15, -3.7D-15,  1.3D-16, r^2= 1.3D+01
   Bfn.  Coefficient  Atom+Function         Bfn.  Coefficient  Atom+Function  
  ----- ------------  ---------------      ----- ------------  ---------------
     2      1.073267   1 H  s                 7     -1.073267   2 H  s         
    12     -1.073267   3 H  s                17      1.073267   4 H  s         
    22      1.073267   5 H  s                27     -1.073267   6 H  s         
    32     -1.073267   7 H  s                37      1.073267   8 H  s         
    47     -0.561632   9 C  px               61     -0.561632  10 C  px        

 Vector   35  Occ=0.000000D+00  E= 2.212648D-01  Symmetry=b1g
              MO Center= -7.0D-16, -1.7D-15,  5.4D-16, r^2= 1.3D+01
   Bfn.  Coefficient  Atom+Function         Bfn.  Coefficient  Atom+Function  
  ----- ------------  ---------------      ----- ------------  ---------------
     2      1.073267   1 H  s                 7      1.073267   2 H  s         
    12     -1.073267   3 H  s                17     -1.073267   4 H  s         
    22      1.073267   5 H  s                27      1.073267   6 H  s         
    32     -1.073267   7 H  s                37     -1.073267   8 H  s         
    49     -0.561632   9 C  pz               63     -0.561632  10 C  pz        

 Vector   36  Occ=0.000000D+00  E= 2.341867D-01  Symmetry=b1u
              MO Center=  2.5D-15,  1.5D-15,  2.7D-15, r^2= 8.4D+00
   Bfn.  Coefficient  Atom+Function         Bfn.  Coefficient  Atom+Function  
  ----- ------------  ---------------      ----- ------------  ---------------
     2      0.732083   1 H  s                 7      0.732083   2 H  s         
    12     -0.732083   3 H  s                17     -0.732083   4 H  s         
    22     -0.732083   5 H  s                27     -0.732083   6 H  s         
    32      0.732083   7 H  s                37      0.732083   8 H  s         
    49     -0.681620   9 C  pz               63     -0.681620  10 C  pz        

 Vector   37  Occ=0.000000D+00  E= 2.341867D-01  Symmetry=b3u
              MO Center=  1.7D-16,  4.8D-15,  4.9D-16, r^2= 8.4D+00
   Bfn.  Coefficient  Atom+Function         Bfn.  Coefficient  Atom+Function  
  ----- ------------  ---------------      ----- ------------  ---------------
     2      0.732083   1 H  s                 7     -0.732083   2 H  s         
    12     -0.732083   3 H  s                17      0.732083   4 H  s         
    22     -0.732083   5 H  s                27      0.732083   6 H  s         
    32      0.732083   7 H  s                37     -0.732083   8 H  s         
    47     -0.681620   9 C  px               61     -0.681620  10 C  px        

 Vector   38  Occ=0.000000D+00  E= 2.341867D-01  Symmetry=b2u
              MO Center=  5.2D-17,  1.4D-15, -4.7D-16, r^2= 8.4D+00
   Bfn.  Coefficient  Atom+Function         Bfn.  Coefficient  Atom+Function  
  ----- ------------  ---------------      ----- ------------  ---------------
     2      0.732083   1 H  s                 7     -0.732083   2 H  s         
    12      0.732083   3 H  s                17     -0.732083   4 H  s         
    22     -0.732083   5 H  s                27      0.732083   6 H  s         
    32     -0.732083   7 H  s                37      0.732083   8 H  s         
    48     -0.681620   9 C  py               62     -0.681620  10 C  py        

 Vector   39  Occ=0.000000D+00  E= 2.394856D-01  Symmetry=au
              MO Center= -1.5D-14,  8.0D-15,  1.2D-15, r^2= 1.4D+01
   Bfn.  Coefficient  Atom+Function         Bfn.  Coefficient  Atom+Function  
  ----- ------------  ---------------      ----- ------------  ---------------
     2      1.476712   1 H  s                 7      1.476712   2 H  s         
    12      1.476712   3 H  s                17      1.476712   4 H  s         
    22     -1.476712   5 H  s                27     -1.476712   6 H  s         
    32     -1.476712   7 H  s                37     -1.476712   8 H  s         
    43      1.305552   9 C  s                57      1.305552  10 C  s         

 Vector   40  Occ=0.000000D+00  E= 3.555302D-01  Symmetry=b1g
              MO Center=  1.4D-15, -2.9D-16, -2.5D-16, r^2= 4.9D+00
   Bfn.  Coefficient  Atom+Function         Bfn.  Coefficient  Atom+Function  
  ----- ------------  ---------------      ----- ------------  ---------------
    47      0.699626   9 C  px               48     -0.699626   9 C  py        
    61     -0.699626  10 C  px               62      0.699626  10 C  py        
    75      0.699626  11 C  px               76      0.699626  11 C  py        
    89     -0.699626  12 C  px               90     -0.699626  12 C  py        
   103     -0.699626  13 C  px              104      0.699626  13 C  py        

 Vector   41  Occ=0.000000D+00  E= 3.555302D-01  Symmetry=b3g
              MO Center= -1.6D-16, -4.8D-16, -3.4D-16, r^2= 4.9D+00
   Bfn.  Coefficient  Atom+Function         Bfn.  Coefficient  Atom+Function  
  ----- ------------  ---------------      ----- ------------  ---------------
    48      0.699626   9 C  py               49     -0.699626   9 C  pz        
    62      0.699626  10 C  py               63      0.699626  10 C  pz        
    76     -0.699626  11 C  py               77     -0.699626  11 C  pz        
    90     -0.699626  12 C  py               91      0.699626  12 C  pz        
   104     -0.699626  13 C  py              105      0.699626  13 C  pz        

 Vector   42  Occ=0.000000D+00  E= 3.555302D-01  Symmetry=b2g
              MO Center= -4.5D-16, -5.8D-17, -6.3D-16, r^2= 4.9D+00
   Bfn.  Coefficient  Atom+Function         Bfn.  Coefficient  Atom+Function  
  ----- ------------  ---------------      ----- ------------  ---------------
    47      0.699626   9 C  px               49     -0.699626   9 C  pz        
    61      0.699626  10 C  px               63      0.699626  10 C  pz        
    75     -0.699626  11 C  px               77      0.699626  11 C  pz        
    89     -0.699626  12 C  px               91     -0.699626  12 C  pz        
   103     -0.699626  13 C  px              105      0.699626  13 C  pz        

 Vector   43  Occ=0.000000D+00  E= 4.199607D-01  Symmetry=b3g
              MO Center=  2.4D-15,  1.9D-15,  8.4D-17, r^2= 7.1D+00
   Bfn.  Coefficient  Atom+Function         Bfn.  Coefficient  Atom+Function  
  ----- ------------  ---------------      ----- ------------  ---------------
    43      1.656629   9 C  s                57     -1.656629  10 C  s         
    71     -1.656629  11 C  s                85      1.656629  12 C  s         
    99      1.656629  13 C  s               113     -1.656629  14 C  s         
   127     -1.656629  15 C  s               141      1.656629  16 C  s         
    48     -1.052620   9 C  py               49     -1.052620   9 C  pz        

 Vector   44  Occ=0.000000D+00  E= 4.199607D-01  Symmetry=b2g
              MO Center= -4.5D-16, -3.8D-15, -1.5D-15, r^2= 7.1D+00
   Bfn.  Coefficient  Atom+Function         Bfn.  Coefficient  Atom+Function  
  ----- ------------  ---------------      ----- ------------  ---------------
    43      1.656629   9 C  s                57     -1.656629  10 C  s         
    71      1.656629  11 C  s                85     -1.656629  12 C  s         
    99      1.656629  13 C  s               113     -1.656629  14 C  s         
   127      1.656629  15 C  s               141     -1.656629  16 C  s         
    47     -1.052620   9 C  px               49     -1.052620   9 C  pz        

 Vector   45  Occ=0.000000D+00  E= 4.199607D-01  Symmetry=b1g
              MO Center= -3.2D-15,  1.8D-15, -5.2D-15, r^2= 7.1D+00
   Bfn.  Coefficient  Atom+Function         Bfn.  Coefficient  Atom+Function  
  ----- ------------  ---------------      ----- ------------  ---------------
    43      1.656629   9 C  s                57      1.656629  10 C  s         
    71     -1.656629  11 C  s                85     -1.656629  12 C  s         
    99      1.656629  13 C  s               113      1.656629  14 C  s         
   127     -1.656629  15 C  s               141     -1.656629  16 C  s         
    47     -1.052620   9 C  px               48     -1.052620   9 C  py        

 Vector   46  Occ=0.000000D+00  E= 5.048418D-01  Symmetry=au
              MO Center= -2.8D-15, -3.1D-15, -4.7D-16, r^2= 5.6D+00
   Bfn.  Coefficient  Atom+Function         Bfn.  Coefficient  Atom+Function  
  ----- ------------  ---------------      ----- ------------  ---------------
    47      1.336084   9 C  px               48     -1.335906   9 C  py        
    61     -1.336084  10 C  px               62      1.335906  10 C  py        
    75     -1.336084  11 C  px               76     -1.335906  11 C  py        
    89      1.336084  12 C  px               90      1.335906  12 C  py        
   103      1.336084  13 C  px              104     -1.335906  13 C  py        


 center of mass
 --------------
 x =   0.00000000 y =   0.00000000 z =   0.00000000

 moments of inertia (a.u.)
 ------------------
         535.693401356530           0.000000000000           0.000000000000
           0.000000000000         535.693401356530           0.000000000000
           0.000000000000           0.000000000000         535.693401356530

  Mulliken analysis of the total density
  --------------------------------------

    Atom       Charge   Shell Charges
 -----------   ------   -------------------------------------------------------
    1 H    1     0.91   0.78  0.12  0.02
    2 H    1     0.91   0.78  0.12  0.02
    3 H    1     0.91   0.78  0.12  0.02
    4 H    1     0.91   0.78  0.12  0.02
    5 H    1     0.91   0.78  0.12  0.02
    6 H    1     0.91   0.78  0.12  0.02
    7 H    1     0.91   0.78  0.12  0.02
    8 H    1     0.91   0.78  0.12  0.02
    9 C    6     6.09   2.00  0.60  0.68  2.05  0.70  0.06
   10 C    6     6.09   2.00  0.60  0.68  2.05  0.70  0.06
   11 C    6     6.09   2.00  0.60  0.68  2.05  0.70  0.06
   12 C    6     6.09   2.00  0.60  0.68  2.05  0.70  0.06
   13 C    6     6.09   2.00  0.60  0.68  2.05  0.70  0.06
   14 C    6     6.09   2.00  0.60  0.68  2.05  0.70  0.06
   15 C    6     6.09   2.00  0.60  0.68  2.05  0.70  0.06
   16 C    6     6.09   2.00  0.60  0.68  2.05  0.70  0.06

       Multipole analysis of the density wrt the origin
       ------------------------------------------------

     L   x y z        total         open         nuclear
     -   - - -        -----         ----         -------
     0   0 0 0     -0.000000      0.000000     56.000000

     1   1 0 0      0.000000      0.000000      0.000000
     1   0 1 0      0.000000      0.000000      0.000000
     1   0 0 1      0.000000      0.000000      0.000000

     2   2 0 0    -35.646346      0.000000    162.123649
     2   1 1 0      0.000000      0.000000      0.000000
     2   1 0 1     -0.000000      0.000000      0.000000
     2   0 2 0    -35.646346      0.000000    162.123649
     2   0 1 1      0.000000      0.000000      0.000000
     2   0 0 2    -35.646346      0.000000    162.123649

                   NWChem Extensible Many-Electron Theory Module
                   ---------------------------------------------

              ======================================================
                   This portion of the program was automatically
                  generated by a Tensor Contraction Engine (TCE).
                  The development of this portion of the program
                 and TCE was supported by US Department of Energy,
                Office of Science, Office of Basic Energy Science.
                      TCE is a product of Battelle and PNNL.
              Please cite: S.Hirata, J.Phys.Chem.A 107, 9887 (2003).
              ======================================================

                             cubane CCSD/PC-1 optimize


            General Information
            -------------------
      Number of processors :     1
         Wavefunction type : Restricted Hartree-Fock
          No. of electrons :    56
           Alpha electrons :    28
            Beta electrons :    28
           No. of orbitals :   304
            Alpha orbitals :   152
             Beta orbitals :   152
        Alpha frozen cores :     8
         Beta frozen cores :     8
     Alpha frozen virtuals :     0
      Beta frozen virtuals :     0
         Spin multiplicity : singlet 
    Number of AO functions :   152
       Number of AO shells :    72
        Use of symmetry is : on 
      Symmetry adaption is : on 
         Schwarz screening : 0.10D-09

          Correlation Information
          -----------------------
          Calculation type : Coupled-cluster singles & doubles                           
   Perturbative correction : none                                                        
            Max iterations :      100
        Residual threshold : 0.10D-06
     T(0) DIIS level shift : 0.00D+00
     L(0) DIIS level shift : 0.00D+00
     T(1) DIIS level shift : 0.00D+00
     L(1) DIIS level shift : 0.00D+00
     T(R) DIIS level shift : 0.00D+00
     T(I) DIIS level shift : 0.00D+00
   CC-T/L Amplitude update :  5-th order DIIS
                I/O scheme : Global Array Library
        L-threshold :  0.10D-06
        EOM-threshold :  0.10D-06
 no EOMCCSD initial starts read in
 TCE RESTART OPTIONS
 READ_INT:   F
 WRITE_INT:  F
 READ_TA:    F
 WRITE_TA:   F
 READ_XA:    F
 WRITE_XA:   F
 READ_IN3:   F
 WRITE_IN3:  F
 SLICE:      F
 D4D5:       F

            Memory Information
            ------------------
          Available GA space size is     262120896 doubles
          Available MA space size is      26204316 doubles

 Maximum block size        32 doubles

 tile_dim =     17

 Block   Spin    Irrep     Size     Offset   Alpha
 -------------------------------------------------
   1    alpha     ag     4 doubles       0       1
   2    alpha     au     1 doubles       4       2
   3    alpha     b1g    2 doubles       5       3
   4    alpha     b1u    3 doubles       7       4
   5    alpha     b2g    2 doubles      10       5
   6    alpha     b2u    3 doubles      12       6
   7    alpha     b3g    2 doubles      15       7
   8    alpha     b3u    3 doubles      17       8
   9    beta      ag     4 doubles      20       1
  10    beta      au     1 doubles      24       2
  11    beta      b1g    2 doubles      25       3
  12    beta      b1u    3 doubles      27       4
  13    beta      b2g    2 doubles      30       5
  14    beta      b2u    3 doubles      32       6
  15    beta      b3g    2 doubles      35       7
  16    beta      b3u    3 doubles      37       8
  17    alpha     ag    14 doubles      40      17
  18    alpha     au    17 doubles      54      18
  19    alpha     b1g   16 doubles      71      19
  20    alpha     b1u   15 doubles      87      20
  21    alpha     b2g   16 doubles     102      21
  22    alpha     b2u   15 doubles     118      22
  23    alpha     b3g   16 doubles     133      23
  24    alpha     b3u   15 doubles     149      24
  25    beta      ag    14 doubles     164      17
  26    beta      au    17 doubles     178      18
  27    beta      b1g   16 doubles     195      19
  28    beta      b1u   15 doubles     211      20
  29    beta      b2g   16 doubles     226      21
  30    beta      b2u   15 doubles     242      22
  31    beta      b3g   16 doubles     257      23
  32    beta      b3u   15 doubles     273      24

 Global array virtual files algorithm will be used

 Parallel file system coherency ......... OK

 Fock matrix recomputed
 1-e file size   =             2592
 1-e file name   = ./cubane.f1         
 Cpu & wall time / sec            4.8            4.7
 4-electron integrals stored in orbital form

 v2    file size   =          9597934
 4-index algorithm nr.   5 is used
 imaxsize =       30
 imaxsize ichop =        0
 2_EL_BATCH AND COEFF MATRIX
 size_ic              2371843
 size_icc                  561
 tile_dim                   17
 max_na                   33
 INTERMEDIATE FILES
 size_4af            192709924
 size_3a1mf            303849216
 size_2a2mf            157699520
 size_1a3mf            248647680
 size_2e              9597934
 before sf_create
 after sf_create
 STEP2 4index
 STEP3 4index
 STEP3 test
 STEP4 4index
 STEP5 4index
 DONE --- DONE ---- DONE ---- DONE
 Cpu & wall time / sec           72.7           94.2
 T1-number-of-tasks                    8

 t1 file size   =              304
 t1 file name   = ./cubane.t1         
 t1 file handle =       -998
 T2-number-of-boxes                  688

 t2 file size   =          1042096
 t2 file name   = ./cubane.t2         
 t2 file handle =       -996

 CCSD iterations
 -----------------------------------------------------------------
 Iter          Residuum       Correlation     Cpu    Wall    V2*C2
 -----------------------------------------------------------------
    1   0.2550550222450  -1.0685501624939     5.5     5.3     1.2
    2   0.0692986963280  -1.0942996813097     5.7     5.3     1.2
    3   0.0265130703056  -1.1158224774214     5.5     5.3     1.2
    4   0.0114291805666  -1.1195299744645     5.6     5.3     1.2
    5   0.0053697112847  -1.1214055788672     5.6     5.3     1.2
 MICROCYCLE DIIS UPDATE:                    5                    5
    6   0.0012427868902  -1.1223955498488     5.6     5.3     1.2
    7   0.0004585106455  -1.1225938562000     5.5     5.3     1.2
    8   0.0002306437342  -1.1225797735954     5.5     5.3     1.2
    9   0.0001096375538  -1.1225831288536     5.4     5.3     1.2
   10   0.0000591001180  -1.1225850195518     5.6     5.3     1.2
 MICROCYCLE DIIS UPDATE:                   10                    5
   11   0.0000105215489  -1.1225864942410     5.5     5.3     1.2
   12   0.0000038230969  -1.1225879304076     5.5     5.3     1.2
   13   0.0000016274923  -1.1225884813220     5.5     5.3     1.2
   14   0.0000007827578  -1.1225886024338     5.5     5.3     1.2
   15   0.0000003774534  -1.1225886559413     5.5     5.4     1.2
 MICROCYCLE DIIS UPDATE:                   15                    5
   16   0.0000001076908  -1.1225886866136     5.6     5.3     1.2
   17   0.0000000404277  -1.1225886950044     5.5     5.3     1.2
 -----------------------------------------------------------------
 Iterations converged
 CCSD correlation energy / hartree =        -1.122588695004380
 CCSD total energy / hartree       =      -308.417440425155689

 Singles contributions

 Doubles contributions
 Reference energy        -308.41744043


 Saving state for tce with suffix numg
        ./cubane.movecs

 Finite difference step  1.00000D-02
 Use five point formula F

                                 NWChem SCF Module
                                 -----------------


                             cubane CCSD/PC-1 optimize



  ao basis        = "ao basis"
  functions       =   152
  atoms           =    16
  closed shells   =    28
  open shells     =     0
  charge          =   0.00
  wavefunction    = RHF 
  input vectors   = ./cubane.movecs
  output vectors  = ./cubane.movecs
  use symmetry    = T
  symmetry adapt  = T


 Summary of "ao basis" -> "ao basis" (spherical)
 ------------------------------------------------------------------------------
       Tag                 Description            Shells   Functions and Types
 ---------------- ------------------------------  ------  ---------------------
 H                            PC-1                   3        5   2s1p
 C                            PC-1                   6       14   3s2p1d


      Symmetry analysis of basis
      --------------------------

        ag         19
        au         19
        b1g        19
        b1u        19
        b2g        19
        b2u        19
        b3g        19
        b3u        19


 Forming initial guess at     198.2s


 Loading old vectors from job with title :

cubane CCSD/PC-1 optimize


      Symmetry analysis of molecular orbitals - initial
      -------------------------------------------------

  Numbering of irreducible representations: 

     1 ag          2 au          3 b1g         4 b1u         5 b2g     
     6 b2u         7 b3g         8 b3u     

  Orbital symmetries:

     1 ag          2 b2u         3 b3u         4 b1u         5 b3g     
     6 b2g         7 b1g         8 au          9 ag         10 b1u     
    11 b3u        12 b2u        13 b2g        14 b3g        15 b1g     
    16 ag         17 au         18 b3u        19 b2u        20 b1u     
    21 ag         22 ag         23 b3u        24 b2u        25 b1u     
    26 b2g        27 b3g        28 b1g        29 ag         30 b3u     
    31 b2u        32 b1u        33 b2g        34 b3g        35 b1g     
    36 b1u        37 b3u        38 b2u     


 Starting SCF solution at     198.3s



 ----------------------------------------------
         Quadratically convergent ROHF

 Convergence threshold     :          1.000E-04
 Maximum no. of iterations :           30
 Final Fock-matrix accuracy:          1.000E-07
 ----------------------------------------------


              iter       energy          gnorm     gmax       time
             ----- ------------------- --------- --------- --------
                 1     -307.2948080973  5.40D-03  1.10D-03    182.4
                 2     -307.2948108861  1.92D-05  3.50D-06    186.4


       Final RHF  results 
       ------------------ 

         Total SCF energy =   -307.294810886110
      One-electron energy =  -1144.046622841875
      Two-electron energy =    469.129772913710
 Nuclear repulsion energy =    367.622039042055

        Time for solution =      4.8s



       Symmetry analysis of molecular orbitals - final
       -----------------------------------------------

  Numbering of irreducible representations: 

     1 ag          2 au          3 b1g         4 b1u         5 b2g     
     6 b2u         7 b3g         8 b3u     

  Orbital symmetries:

     1 ag          2 b3u         3 b2u         4 b1u         5 b2g     
     6 b1g         7 b3g         8 au          9 ag         10 b3u     
    11 b1u        12 b2u        13 b1g        14 b2g        15 b3g     
    16 ag         17 au         18 b2u        19 b1u        20 b3u     
    21 ag         22 ag         23 b3u        24 b2u        25 b1u     
    26 b3g        27 b2g        28 b1g        29 ag         30 b3u     
    31 b2u        32 b1u        33 b1g        34 b2g        35 b3g     
    36 b2u        37 b1u        38 b3u     

             Final eigenvalues
             -----------------

              1      
    1  -11.2136
    2  -11.2131
    3  -11.2131
    4  -11.2131
    5  -11.2125
    6  -11.2125
    7  -11.2125
    8  -11.2120
    9   -1.2569
   10   -0.9876
   11   -0.9875
   12   -0.9875
   13   -0.7736
   14   -0.7736
   15   -0.7734
   16   -0.7160
   17   -0.6459
   18   -0.5870
   19   -0.5870
   20   -0.5868
   21   -0.5841
   22   -0.5841
   23   -0.3958
   24   -0.3957
   25   -0.3957
   26   -0.3912
   27   -0.3909
   28   -0.3909
   29    0.1605
   30    0.1795
   31    0.1796
   32    0.1796
   33    0.2212
   34    0.2212
   35    0.2214
   36    0.2341
   37    0.2341
   38    0.2341

                       ROHF Final Molecular Orbital Analysis
                       -------------------------------------

 Vector    9  Occ=2.000000D+00  E=-1.256873D+00  Symmetry=ag
              MO Center= -2.3D-17, -7.5D-19,  4.5D-19, r^2= 1.6D+00
   Bfn.  Coefficient  Atom+Function         Bfn.  Coefficient  Atom+Function  
  ----- ------------  ---------------      ----- ------------  ---------------
    42      0.125733   9 C  s                56      0.125733  10 C  s         
    70      0.125733  11 C  s                84      0.125733  12 C  s         
    98      0.125733  13 C  s               112      0.125733  14 C  s         
   126      0.125733  15 C  s               140      0.125733  16 C  s         

 Vector   10  Occ=2.000000D+00  E=-9.875590D-01  Symmetry=b3u
              MO Center=  9.8D-17, -9.3D-18, -2.9D-18, r^2= 2.6D+00
   Bfn.  Coefficient  Atom+Function         Bfn.  Coefficient  Atom+Function  
  ----- ------------  ---------------      ----- ------------  ---------------
    43      0.146900   9 C  s                57     -0.146900  10 C  s         
    71     -0.146900  11 C  s                85      0.146900  12 C  s         
    99     -0.146900  13 C  s               113      0.146900  14 C  s         
   127      0.146900  15 C  s               141     -0.146900  16 C  s         

 Vector   11  Occ=2.000000D+00  E=-9.874573D-01  Symmetry=b1u
              MO Center= -5.8D-17,  3.0D-17, -1.3D-16, r^2= 2.6D+00
[...]
   53 Bend                    10    15    12                90.00000    0.00000
   54 Bend                    10    16    11                90.00000    0.00000
   55 Bend                    11    13    12                90.00000    0.00000
   56 Bend                    11    14    12                90.00000    0.00000
   57 Bend                    13    10    15                90.00000    0.00000
   58 Bend                    13    10    16                90.00000    0.00000
   59 Bend                    13    11    14                90.00000    0.00000
   60 Bend                    13    11    16                90.00000    0.00000
   61 Bend                    13    12    14                90.00000    0.00000
   62 Bend                    13    12    15                90.00000    0.00000
   63 Bend                    14     9    15                90.00000    0.00000
   64 Bend                    14     9    16                90.00000    0.00000
   65 Bend                    14    11    16                90.00000    0.00000
   66 Bend                    14    12    15                90.00000    0.00000
   67 Bend                    15     9    16                90.00000    0.00000
   68 Bend                    15    10    16                90.00000    0.00000
   69 Torsion                  1     9    14     6           0.00000    0.00000
   70 Torsion                  1     9    14    11        -135.00000    0.00000
   71 Torsion                  1     9    14    12         135.00000    0.00000
   72 Torsion                  1     9    15     7           0.00000    0.00000
   73 Torsion                  1     9    15    10         135.00000   -0.00000
   74 Torsion                  1     9    15    12        -135.00000   -0.00000
   75 Torsion                  1     9    16     8           0.00000    0.00000
   76 Torsion                  1     9    16    10        -135.00000    0.00000
   77 Torsion                  1     9    16    11         135.00000    0.00000
   78 Torsion                  2    10    13     5           0.00000    0.00000
   79 Torsion                  2    10    13    11         135.00000    0.00000
   80 Torsion                  2    10    13    12        -135.00000    0.00000
   81 Torsion                  2    10    15     7           0.00000    0.00000
   82 Torsion                  2    10    15     9        -135.00000    0.00000
   83 Torsion                  2    10    15    12         135.00000    0.00000
   84 Torsion                  2    10    16     8           0.00000    0.00000
   85 Torsion                  2    10    16     9         135.00000   -0.00000
   86 Torsion                  2    10    16    11        -135.00000   -0.00000
   87 Torsion                  3    11    13     5           0.00000    0.00000
   88 Torsion                  3    11    13    10        -135.00000   -0.00000
   89 Torsion                  3    11    13    12         135.00000   -0.00000
   90 Torsion                  3    11    14     6           0.00000    0.00000
   91 Torsion                  3    11    14     9         135.00000    0.00000
   92 Torsion                  3    11    14    12        -135.00000    0.00000
   93 Torsion                  3    11    16     8           0.00000    0.00000
   94 Torsion                  3    11    16     9        -135.00000    0.00000
   95 Torsion                  3    11    16    10         135.00000    0.00000
   96 Torsion                  4    12    13     5           0.00000    0.00000
   97 Torsion                  4    12    13    10         135.00000    0.00000
   98 Torsion                  4    12    13    11        -135.00000    0.00000
   99 Torsion                  4    12    14     6           0.00000    0.00000
  100 Torsion                  4    12    14     9        -135.00000   -0.00000
  101 Torsion                  4    12    14    11         135.00000   -0.00000
  102 Torsion                  4    12    15     7           0.00000    0.00000
  103 Torsion                  4    12    15     9         135.00000    0.00000
  104 Torsion                  4    12    15    10        -135.00000    0.00000
  105 Torsion                  5    13    10    15         135.00000   -0.00000
  106 Torsion                  5    13    10    16        -135.00000   -0.00000
  107 Torsion                  5    13    11    14        -135.00000    0.00000
  108 Torsion                  5    13    11    16         135.00000    0.00000
  109 Torsion                  5    13    12    14         135.00000   -0.00000
  110 Torsion                  5    13    12    15        -135.00000   -0.00000
  111 Torsion                  6    14     9    15        -135.00000   -0.00000
  112 Torsion                  6    14     9    16         135.00000   -0.00000
  113 Torsion                  6    14    11    13         135.00000   -0.00000
  114 Torsion                  6    14    11    16        -135.00000   -0.00000
  115 Torsion                  6    14    12    13        -135.00000    0.00000
  116 Torsion                  6    14    12    15         135.00000    0.00000
  117 Torsion                  7    15     9    14         135.00000    0.00000
  118 Torsion                  7    15     9    16        -135.00000    0.00000
  119 Torsion                  7    15    10    13        -135.00000   -0.00000
  120 Torsion                  7    15    10    16         135.00000   -0.00000
  121 Torsion                  7    15    12    13         135.00000   -0.00000
  122 Torsion                  7    15    12    14        -135.00000   -0.00000
  123 Torsion                  8    16     9    14        -135.00000   -0.00000
  124 Torsion                  8    16     9    15         135.00000   -0.00000
  125 Torsion                  8    16    10    13         135.00000    0.00000
  126 Torsion                  8    16    10    15        -135.00000    0.00000
  127 Torsion                  8    16    11    13        -135.00000   -0.00000
  128 Torsion                  8    16    11    14         135.00000   -0.00000
  129 Torsion                  9    14    11    13         -90.00000    0.00000
  130 Torsion                  9    14    11    16           0.00000    0.00000
  131 Torsion                  9    14    12    13          90.00000    0.00000
  132 Torsion                  9    14    12    15           0.00000    0.00000
  133 Torsion                  9    15    10    13          90.00000    0.00000
  134 Torsion                  9    15    10    16           0.00000    0.00000
  135 Torsion                  9    15    12    13         -90.00000    0.00000
  136 Torsion                  9    15    12    14           0.00000    0.00000
  137 Torsion                  9    16    10    13         -90.00000    0.00000
  138 Torsion                  9    16    10    15           0.00000    0.00000
  139 Torsion                  9    16    11    13          90.00000    0.00000
  140 Torsion                  9    16    11    14           0.00000    0.00000
  141 Torsion                 10    13    11    14          90.00000    0.00000
  142 Torsion                 10    13    11    16           0.00000    0.00000
  143 Torsion                 10    13    12    14         -90.00000    0.00000
  144 Torsion                 10    13    12    15           0.00000    0.00000
  145 Torsion                 10    15     9    14         -90.00000    0.00000
  146 Torsion                 10    15     9    16           0.00000    0.00000
  147 Torsion                 10    15    12    13           0.00000    0.00000
  148 Torsion                 10    15    12    14          90.00000    0.00000
  149 Torsion                 10    16     9    14          90.00000    0.00000
  150 Torsion                 10    16     9    15           0.00000    0.00000
  151 Torsion                 10    16    11    13           0.00000    0.00000
  152 Torsion                 10    16    11    14         -90.00000    0.00000
  153 Torsion                 11    13    10    15         -90.00000    0.00000
  154 Torsion                 11    13    10    16           0.00000    0.00000
  155 Torsion                 11    13    12    14           0.00000    0.00000
  156 Torsion                 11    13    12    15          90.00000    0.00000
  157 Torsion                 11    14     9    15          90.00000    0.00000
  158 Torsion                 11    14     9    16           0.00000    0.00000
  159 Torsion                 11    14    12    13           0.00000    0.00000
  160 Torsion                 11    14    12    15         -90.00000    0.00000
  161 Torsion                 11    16     9    14           0.00000    0.00000
  162 Torsion                 11    16     9    15         -90.00000    0.00000
  163 Torsion                 11    16    10    13           0.00000    0.00000
  164 Torsion                 11    16    10    15          90.00000    0.00000
  165 Torsion                 12    13    10    15           0.00000    0.00000
  166 Torsion                 12    13    10    16          90.00000    0.00000
  167 Torsion                 12    13    11    14           0.00000    0.00000
  168 Torsion                 12    13    11    16         -90.00000    0.00000
  169 Torsion                 12    14     9    15           0.00000    0.00000
  170 Torsion                 12    14     9    16         -90.00000    0.00000
  171 Torsion                 12    14    11    13           0.00000    0.00000
  172 Torsion                 12    14    11    16          90.00000    0.00000
  173 Torsion                 12    15     9    14           0.00000    0.00000
  174 Torsion                 12    15     9    16          90.00000    0.00000
  175 Torsion                 12    15    10    13           0.00000    0.00000
  176 Torsion                 12    15    10    16         -90.00000    0.00000

 ==============================================================================
                                internuclear distances
 ------------------------------------------------------------------------------
       center one      |      center two      | atomic units |  angstroms
 ------------------------------------------------------------------------------
    9 C                |   1 H                |     2.06391  |     1.09218
   10 C                |   2 H                |     2.06391  |     1.09218
   11 C                |   3 H                |     2.06391  |     1.09218
   12 C                |   4 H                |     2.06391  |     1.09218
   13 C                |   5 H                |     2.06391  |     1.09218
   13 C                |  10 C                |     2.96315  |     1.56803
   13 C                |  11 C                |     2.96315  |     1.56803
   13 C                |  12 C                |     2.96315  |     1.56803
   14 C                |   6 H                |     2.06391  |     1.09218
   14 C                |   9 C                |     2.96315  |     1.56803
   14 C                |  11 C                |     2.96315  |     1.56803
   14 C                |  12 C                |     2.96315  |     1.56803
   15 C                |   7 H                |     2.06391  |     1.09218
   15 C                |   9 C                |     2.96315  |     1.56803
   15 C                |  10 C                |     2.96315  |     1.56803
   15 C                |  12 C                |     2.96315  |     1.56803
   16 C                |   8 H                |     2.06391  |     1.09218
   16 C                |   9 C                |     2.96315  |     1.56803
   16 C                |  10 C                |     2.96315  |     1.56803
   16 C                |  11 C                |     2.96315  |     1.56803
 ------------------------------------------------------------------------------
                         number of included internuclear distances:         20
 ==============================================================================



 ==============================================================================
                                 internuclear angles
 ------------------------------------------------------------------------------
        center 1       |       center 2       |       center 3       |  degrees
 ------------------------------------------------------------------------------
    1 H                |   9 C                |  14 C                |   125.26
    1 H                |   9 C                |  15 C                |   125.26
    1 H                |   9 C                |  16 C                |   125.26
   14 C                |   9 C                |  15 C                |    90.00
   14 C                |   9 C                |  16 C                |    90.00
   15 C                |   9 C                |  16 C                |    90.00
    2 H                |  10 C                |  13 C                |   125.26
    2 H                |  10 C                |  15 C                |   125.26
    2 H                |  10 C                |  16 C                |   125.26
   13 C                |  10 C                |  15 C                |    90.00
   13 C                |  10 C                |  16 C                |    90.00
   15 C                |  10 C                |  16 C                |    90.00
    3 H                |  11 C                |  13 C                |   125.26
    3 H                |  11 C                |  14 C                |   125.26
    3 H                |  11 C                |  16 C                |   125.26
   13 C                |  11 C                |  14 C                |    90.00
   13 C                |  11 C                |  16 C                |    90.00
   14 C                |  11 C                |  16 C                |    90.00
    4 H                |  12 C                |  13 C                |   125.26
    4 H                |  12 C                |  14 C                |   125.26
    4 H                |  12 C                |  15 C                |   125.26
   13 C                |  12 C                |  14 C                |    90.00
   13 C                |  12 C                |  15 C                |    90.00
   14 C                |  12 C                |  15 C                |    90.00
    5 H                |  13 C                |  10 C                |   125.26
    5 H                |  13 C                |  11 C                |   125.26
    5 H                |  13 C                |  12 C                |   125.26
   10 C                |  13 C                |  11 C                |    90.00
   10 C                |  13 C                |  12 C                |    90.00
   11 C                |  13 C                |  12 C                |    90.00
    6 H                |  14 C                |   9 C                |   125.26
    6 H                |  14 C                |  11 C                |   125.26
    6 H                |  14 C                |  12 C                |   125.26
    9 C                |  14 C                |  11 C                |    90.00
    9 C                |  14 C                |  12 C                |    90.00
   11 C                |  14 C                |  12 C                |    90.00
    7 H                |  15 C                |   9 C                |   125.26
    7 H                |  15 C                |  10 C                |   125.26
    7 H                |  15 C                |  12 C                |   125.26
    9 C                |  15 C                |  10 C                |    90.00
    9 C                |  15 C                |  12 C                |    90.00
   10 C                |  15 C                |  12 C                |    90.00
    8 H                |  16 C                |   9 C                |   125.26
    8 H                |  16 C                |  10 C                |   125.26
    8 H                |  16 C                |  11 C                |   125.26
    9 C                |  16 C                |  10 C                |    90.00
    9 C                |  16 C                |  11 C                |    90.00
   10 C                |  16 C                |  11 C                |    90.00
 ------------------------------------------------------------------------------
                            number of included internuclear angles:         48
 ==============================================================================




 Task  times  cpu:     7474.8s     wall:     8077.7s
 Summary of allocated global arrays
-----------------------------------
  No active global arrays



                         GA Statistics for process    0
                         ------------------------------

       create   destroy   get      put      acc     scatter   gather  read&inc
calls: 8.35e+04 8.35e+04 2.31e+08 2.59e+06 3.38e+07    0        0     5.93e+07 
number of processes/call 1.00e+00 1.00e+00 1.00e+00 0.00e+00 0.00e+00
bytes total:             5.05e+12 3.98e+10 1.98e+11 0.00e+00 0.00e+00 4.75e+08
bytes remote:            0.00e+00 0.00e+00 0.00e+00 0.00e+00 0.00e+00 0.00e+00
Max memory consumed for GA by this process: 207815296 bytes
MA_summarize_allocated_blocks: starting scan ...
MA_summarize_allocated_blocks: scan completed: 0 heap blocks, 0 stack blocks
MA usage statistics:

	allocation statistics:
					      heap	     stack
					      ----	     -----
	current number of blocks	         0	         0
	maximum number of blocks	        19	        40
	current total bytes		         0	         0
	maximum total bytes		     80152	  37378968
	maximum total K-bytes		        81	     37379
	maximum total M-bytes		         1	        38


                                NWChem Input Module
                                -------------------





                                     CITATION
                                     --------
                Please cite the following reference when publishing
                           results obtained with NWChem:

                 M. Valiev, E.J. Bylaska, N. Govind, K. Kowalski,
              T.P. Straatsma, H.J.J. van Dam, D. Wang, J. Nieplocha,
                        E. Apra, T.L. Windus, W.A. de Jong
                 "NWChem: a comprehensive and scalable open-source
                  solution for large scale molecular simulations"
                      Comput. Phys. Commun. 181, 1477 (2010)
                           doi:10.1016/j.cpc.2010.04.018

                                      AUTHORS
                                      -------
          E. Apra, E. J. Bylaska, W. A. de Jong, N. Govind, K. Kowalski,
       T. P. Straatsma, M. Valiev, H. J. J. van Dam, D. Wang, T. L. Windus,
        J. Hammond, J. Autschbach, K. Bhaskaran-Nair, J. Brabec, K. Lopata,
       S. A. Fischer, S. Krishnamoorthy, W. Ma, M. Klemm, O. Villa, Y. Chen,
    V. Anisimov, F. Aquino, S. Hirata, M. T. Hackler, T. Risthaus, M. Malagoli,
       A. Marenich, A. Otero-de-la-Roza, J. Mullin, P. Nichols, R. Peverati,
     J. Pittner, Y. Zhao, P.-D. Fan, A. Fonari, M. Williamson, R. J. Harrison,
       J. R. Rehr, M. Dupuis, D. Silverstein, D. M. A. Smith, J. Nieplocha,
        V. Tipparaju, M. Krishnan, B. E. Van Kuiken, A. Vazquez-Mayagoitia,
        L. Jensen, M. Swart, Q. Wu, T. Van Voorhis, A. A. Auer, M. Nooijen,
      L. D. Crosby, E. Brown, G. Cisneros, G. I. Fann, H. Fruchtl, J. Garza,
        K. Hirao, R. A. Kendall, J. A. Nichols, K. Tsemekhman, K. Wolinski,
     J. Anchell, D. E. Bernholdt, P. Borowski, T. Clark, D. Clerc, H. Dachsel,
   M. J. O. Deegan, K. Dyall, D. Elwood, E. Glendening, M. Gutowski, A. C. Hess,
         J. Jaffe, B. G. Johnson, J. Ju, R. Kobayashi, R. Kutteh, Z. Lin,
   R. Littlefield, X. Long, B. Meng, T. Nakajima, S. Niu, L. Pollack, M. Rosing,
   K. Glaesemann, G. Sandrone, M. Stave, H. Taylor, G. Thomas, J. H. van Lenthe,
                               A. T. Wong, Z. Zhang.

 Total times  cpu:     7474.9s     wall:     8077.8s
