 argument  1 = cubane.nw
                                         
                                         


              Northwest Computational Chemistry Package (NWChem) 6.6
              ------------------------------------------------------


                    Environmental Molecular Sciences Laboratory
                       Pacific Northwest National Laboratory
                                Richland, WA 99352

                              Copyright (c) 1994-2015
                       Pacific Northwest National Laboratory
                            Battelle Memorial Institute

             NWChem is an open-source computational chemistry package
                        distributed under the terms of the
                      Educational Community License (ECL) 2.0
             A copy of the license is included with this distribution
                              in the LICENSE.TXT file

                                  ACKNOWLEDGMENT
                                  --------------

            This software and its documentation were developed at the
            EMSL at Pacific Northwest National Laboratory, a multiprogram
            national laboratory, operated for the U.S. Department of Energy
            by Battelle under Contract Number DE-AC05-76RL01830. Support
            for this work was provided by the Department of Energy Office
            of Biological and Environmental Research, Office of Basic
            Energy Sciences, and the Office of Advanced Scientific Computing.


           Job information
           ---------------

    hostname        = dasha
    program         = nwchem
    date            = Sat Feb  4 10:39:33 2017

    compiled        = Вс_дек_04_17:47:10_2016
    source          = /home/dasha/bin/nwchem-6.6
    nwchem branch   = 6.6
    nwchem revision = 27746
    ga revision     = 10594
    input           = cubane.nw
    prefix          = cubane.
    data base       = ./cubane.db
    status          = startup
    nproc           =        1
    time left       =     -1s



           Memory information
           ------------------

    heap     =   26214398 doubles =    200.0 Mbytes
    stack    =   26214395 doubles =    200.0 Mbytes
    global   =  262144000 doubles =   2000.0 Mbytes (distinct from heap & stack)
    total    =  314572793 doubles =   2400.0 Mbytes
    verify   = yes
    hardfail = no 


           Directory information
           ---------------------

  0 permanent = .
  0 scratch   = .




                                NWChem Input Module
                                -------------------


                            cubane CCSD/cc-pVDZ hessian
                            ---------------------------

 Scaling coordinates for geometry "geometry" by  1.889725989
 (inverse scale =  0.529177249)

 Turning off AUTOSYM since
 SYMMETRY directive was detected!


          ------
          auto-z
          ------


                             Geometry "geometry" -> ""
                             -------------------------

 Output coordinates in angstroms (scale by  1.889725989 to convert to a.u.)

  No.       Tag          Charge          X              Y              Z
 ---- ---------------- ---------- -------------- -------------- --------------
    1 H                    1.0000     1.42503470     1.42503470     1.42503472
    2 H                    1.0000    -1.42503470    -1.42503470     1.42503472
    3 H                    1.0000    -1.42503470     1.42503470    -1.42503472
    4 H                    1.0000     1.42503470    -1.42503470    -1.42503472
    5 H                    1.0000    -1.42503470    -1.42503470    -1.42503472
    6 H                    1.0000     1.42503470     1.42503470    -1.42503472
    7 H                    1.0000     1.42503470    -1.42503470     1.42503472
    8 H                    1.0000    -1.42503470     1.42503470     1.42503472
    9 C                    6.0000     0.78961438     0.78961438     0.78961439
   10 C                    6.0000    -0.78961438    -0.78961438     0.78961439
   11 C                    6.0000    -0.78961438     0.78961438    -0.78961439
   12 C                    6.0000     0.78961438    -0.78961438    -0.78961439
   13 C                    6.0000    -0.78961438    -0.78961438    -0.78961439
   14 C                    6.0000     0.78961438     0.78961438    -0.78961439
   15 C                    6.0000     0.78961438    -0.78961438     0.78961439
   16 C                    6.0000    -0.78961438     0.78961438     0.78961439

      Atomic Mass 
      ----------- 

      H                  1.007825
      C                 12.000000


 Effective nuclear repulsion energy (a.u.)     364.6352246725

            Nuclear Dipole moment (a.u.) 
            ----------------------------
        X                 Y               Z
 ---------------- ---------------- ----------------
     0.0000000000     0.0000000000     0.0000000000



                                Z-matrix (autoz)
                                -------- 

 Units are Angstrom for bonds and degrees for angles

      Type          Name      I     J     K     L     M      Value
      ----------- --------  ----- ----- ----- ----- ----- ----------
    1 Stretch                  1     9                       1.10058
    2 Stretch                  2    10                       1.10058
    3 Stretch                  3    11                       1.10058
    4 Stretch                  4    12                       1.10058
    5 Stretch                  5    13                       1.10058
    6 Stretch                  6    14                       1.10058
    7 Stretch                  7    15                       1.10058
    8 Stretch                  8    16                       1.10058
    9 Stretch                  9    14                       1.57923
   10 Stretch                  9    15                       1.57923
   11 Stretch                  9    16                       1.57923
   12 Stretch                 10    13                       1.57923
   13 Stretch                 10    15                       1.57923
   14 Stretch                 10    16                       1.57923
   15 Stretch                 11    13                       1.57923
   16 Stretch                 11    14                       1.57923
   17 Stretch                 11    16                       1.57923
   18 Stretch                 12    13                       1.57923
   19 Stretch                 12    14                       1.57923
   20 Stretch                 12    15                       1.57923
   21 Bend                     1     9    14               125.26439
   22 Bend                     1     9    15               125.26439
   23 Bend                     1     9    16               125.26439
   24 Bend                     2    10    13               125.26439
   25 Bend                     2    10    15               125.26439
   26 Bend                     2    10    16               125.26439
   27 Bend                     3    11    13               125.26439
   28 Bend                     3    11    14               125.26439
   29 Bend                     3    11    16               125.26439
   30 Bend                     4    12    13               125.26439
   31 Bend                     4    12    14               125.26439
   32 Bend                     4    12    15               125.26439
   33 Bend                     5    13    10               125.26439
   34 Bend                     5    13    11               125.26439
   35 Bend                     5    13    12               125.26439
   36 Bend                     6    14     9               125.26439
   37 Bend                     6    14    11               125.26439
   38 Bend                     6    14    12               125.26439
   39 Bend                     7    15     9               125.26439
   40 Bend                     7    15    10               125.26439
   41 Bend                     7    15    12               125.26439
   42 Bend                     8    16     9               125.26439
   43 Bend                     8    16    10               125.26439
   44 Bend                     8    16    11               125.26439
   45 Bend                     9    14    11                90.00000
   46 Bend                     9    14    12                90.00000
   47 Bend                     9    15    10                90.00000
   48 Bend                     9    15    12                90.00000
   49 Bend                     9    16    10                90.00000
   50 Bend                     9    16    11                90.00000
   51 Bend                    10    13    11                90.00000
   52 Bend                    10    13    12                90.00000
   53 Bend                    10    15    12                90.00000
   54 Bend                    10    16    11                90.00000
   55 Bend                    11    13    12                90.00000
   56 Bend                    11    14    12                90.00000
   57 Bend                    13    10    15                90.00000
   58 Bend                    13    10    16                90.00000
   59 Bend                    13    11    14                90.00000
   60 Bend                    13    11    16                90.00000
   61 Bend                    13    12    14                90.00000
   62 Bend                    13    12    15                90.00000
   63 Bend                    14     9    15                90.00000
   64 Bend                    14     9    16                90.00000
   65 Bend                    14    11    16                90.00000
   66 Bend                    14    12    15                90.00000
   67 Bend                    15     9    16                90.00000
   68 Bend                    15    10    16                90.00000
   69 Torsion                  1     9    14     6           0.00000
   70 Torsion                  1     9    14    11        -135.00000
   71 Torsion                  1     9    14    12         135.00000
   72 Torsion                  1     9    15     7          -0.00000
   73 Torsion                  1     9    15    10         135.00000
   74 Torsion                  1     9    15    12        -135.00000
   75 Torsion                  1     9    16     8          -0.00000
   76 Torsion                  1     9    16    10        -135.00000
   77 Torsion                  1     9    16    11         135.00000
   78 Torsion                  2    10    13     5           0.00000
   79 Torsion                  2    10    13    11         135.00000
   80 Torsion                  2    10    13    12        -135.00000
   81 Torsion                  2    10    15     7          -0.00000
   82 Torsion                  2    10    15     9        -135.00000
   83 Torsion                  2    10    15    12         135.00000
   84 Torsion                  2    10    16     8          -0.00000
   85 Torsion                  2    10    16     9         135.00000
   86 Torsion                  2    10    16    11        -135.00000
   87 Torsion                  3    11    13     5          -0.00000
   88 Torsion                  3    11    13    10        -135.00000
   89 Torsion                  3    11    13    12         135.00000
   90 Torsion                  3    11    14     6          -0.00000
   91 Torsion                  3    11    14     9         135.00000
   92 Torsion                  3    11    14    12        -135.00000
   93 Torsion                  3    11    16     8           0.00000
   94 Torsion                  3    11    16     9        -135.00000
   95 Torsion                  3    11    16    10         135.00000
   96 Torsion                  4    12    13     5          -0.00000
   97 Torsion                  4    12    13    10         135.00000
   98 Torsion                  4    12    13    11        -135.00000
   99 Torsion                  4    12    14     6          -0.00000
  100 Torsion                  4    12    14     9        -135.00000
  101 Torsion                  4    12    14    11         135.00000
  102 Torsion                  4    12    15     7           0.00000
  103 Torsion                  4    12    15     9         135.00000
  104 Torsion                  4    12    15    10        -135.00000
  105 Torsion                  5    13    10    15         135.00000
  106 Torsion                  5    13    10    16        -135.00000
  107 Torsion                  5    13    11    14        -135.00000
  108 Torsion                  5    13    11    16         135.00000
  109 Torsion                  5    13    12    14         135.00000
  110 Torsion                  5    13    12    15        -135.00000
  111 Torsion                  6    14     9    15        -135.00000
  112 Torsion                  6    14     9    16         135.00000
  113 Torsion                  6    14    11    13         135.00000
  114 Torsion                  6    14    11    16        -135.00000
  115 Torsion                  6    14    12    13        -135.00000
  116 Torsion                  6    14    12    15         135.00000
  117 Torsion                  7    15     9    14         135.00000
  118 Torsion                  7    15     9    16        -135.00000
  119 Torsion                  7    15    10    13        -135.00000
  120 Torsion                  7    15    10    16         135.00000
  121 Torsion                  7    15    12    13         135.00000
  122 Torsion                  7    15    12    14        -135.00000
  123 Torsion                  8    16     9    14        -135.00000
  124 Torsion                  8    16     9    15         135.00000
  125 Torsion                  8    16    10    13         135.00000
  126 Torsion                  8    16    10    15        -135.00000
  127 Torsion                  8    16    11    13        -135.00000
  128 Torsion                  8    16    11    14         135.00000
  129 Torsion                  9    14    11    13         -90.00000
  130 Torsion                  9    14    11    16           0.00000
  131 Torsion                  9    14    12    13          90.00000
  132 Torsion                  9    14    12    15           0.00000
  133 Torsion                  9    15    10    13          90.00000
  134 Torsion                  9    15    10    16           0.00000
  135 Torsion                  9    15    12    13         -90.00000
  136 Torsion                  9    15    12    14           0.00000
  137 Torsion                  9    16    10    13         -90.00000
  138 Torsion                  9    16    10    15           0.00000
  139 Torsion                  9    16    11    13          90.00000
  140 Torsion                  9    16    11    14           0.00000
  141 Torsion                 10    13    11    14          90.00000
  142 Torsion                 10    13    11    16           0.00000
  143 Torsion                 10    13    12    14         -90.00000
  144 Torsion                 10    13    12    15           0.00000
  145 Torsion                 10    15     9    14         -90.00000
  146 Torsion                 10    15     9    16           0.00000
  147 Torsion                 10    15    12    13           0.00000
  148 Torsion                 10    15    12    14          90.00000
  149 Torsion                 10    16     9    14          90.00000
  150 Torsion                 10    16     9    15           0.00000
  151 Torsion                 10    16    11    13           0.00000
  152 Torsion                 10    16    11    14         -90.00000
  153 Torsion                 11    13    10    15         -90.00000
  154 Torsion                 11    13    10    16           0.00000
  155 Torsion                 11    13    12    14           0.00000
  156 Torsion                 11    13    12    15          90.00000
  157 Torsion                 11    14     9    15          90.00000
  158 Torsion                 11    14     9    16           0.00000
  159 Torsion                 11    14    12    13           0.00000
  160 Torsion                 11    14    12    15         -90.00000
  161 Torsion                 11    16     9    14           0.00000
  162 Torsion                 11    16     9    15         -90.00000
  163 Torsion                 11    16    10    13           0.00000
  164 Torsion                 11    16    10    15          90.00000
  165 Torsion                 12    13    10    15           0.00000
  166 Torsion                 12    13    10    16          90.00000
  167 Torsion                 12    13    11    14           0.00000
  168 Torsion                 12    13    11    16         -90.00000
  169 Torsion                 12    14     9    15           0.00000
  170 Torsion                 12    14     9    16         -90.00000
  171 Torsion                 12    14    11    13           0.00000
  172 Torsion                 12    14    11    16          90.00000
  173 Torsion                 12    15     9    14           0.00000
  174 Torsion                 12    15     9    16          90.00000
  175 Torsion                 12    15    10    13           0.00000
  176 Torsion                 12    15    10    16         -90.00000


            XYZ format geometry
            -------------------
    16
 geometry
 H                     1.42503470     1.42503470     1.42503472
 H                    -1.42503470    -1.42503470     1.42503472
 H                    -1.42503470     1.42503470    -1.42503472
 H                     1.42503470    -1.42503470    -1.42503472
 H                    -1.42503470    -1.42503470    -1.42503472
 H                     1.42503470     1.42503470    -1.42503472
 H                     1.42503470    -1.42503470     1.42503472
 H                    -1.42503470     1.42503470     1.42503472
 C                     0.78961438     0.78961438     0.78961439
 C                    -0.78961438    -0.78961438     0.78961439
 C                    -0.78961438     0.78961438    -0.78961439
 C                     0.78961438    -0.78961438    -0.78961439
 C                    -0.78961438    -0.78961438    -0.78961439
 C                     0.78961438     0.78961438    -0.78961439
 C                     0.78961438    -0.78961438     0.78961439
 C                    -0.78961438     0.78961438     0.78961439

 ==============================================================================
                                internuclear distances
 ------------------------------------------------------------------------------
       center one      |      center two      | atomic units |  angstroms
 ------------------------------------------------------------------------------
    9 C                |   1 H                |     2.07980  |     1.10058
   10 C                |   2 H                |     2.07980  |     1.10058
   11 C                |   3 H                |     2.07980  |     1.10058
   12 C                |   4 H                |     2.07980  |     1.10058
   13 C                |   5 H                |     2.07980  |     1.10058
   13 C                |  10 C                |     2.98431  |     1.57923
   13 C                |  11 C                |     2.98431  |     1.57923
   13 C                |  12 C                |     2.98431  |     1.57923
   14 C                |   6 H                |     2.07980  |     1.10058
   14 C                |   9 C                |     2.98431  |     1.57923
   14 C                |  11 C                |     2.98431  |     1.57923
   14 C                |  12 C                |     2.98431  |     1.57923
   15 C                |   7 H                |     2.07980  |     1.10058
   15 C                |   9 C                |     2.98431  |     1.57923
   15 C                |  10 C                |     2.98431  |     1.57923
   15 C                |  12 C                |     2.98431  |     1.57923
   16 C                |   8 H                |     2.07980  |     1.10058
   16 C                |   9 C                |     2.98431  |     1.57923
   16 C                |  10 C                |     2.98431  |     1.57923
   16 C                |  11 C                |     2.98431  |     1.57923
 ------------------------------------------------------------------------------
                         number of included internuclear distances:         20
 ==============================================================================



 ==============================================================================
                                 internuclear angles
 ------------------------------------------------------------------------------
        center 1       |       center 2       |       center 3       |  degrees
 ------------------------------------------------------------------------------
    1 H                |   9 C                |  14 C                |   125.26
    1 H                |   9 C                |  15 C                |   125.26
    1 H                |   9 C                |  16 C                |   125.26
   14 C                |   9 C                |  15 C                |    90.00
   14 C                |   9 C                |  16 C                |    90.00
   15 C                |   9 C                |  16 C                |    90.00
    2 H                |  10 C                |  13 C                |   125.26
    2 H                |  10 C                |  15 C                |   125.26
    2 H                |  10 C                |  16 C                |   125.26
   13 C                |  10 C                |  15 C                |    90.00
   13 C                |  10 C                |  16 C                |    90.00
   15 C                |  10 C                |  16 C                |    90.00
    3 H                |  11 C                |  13 C                |   125.26
    3 H                |  11 C                |  14 C                |   125.26
    3 H                |  11 C                |  16 C                |   125.26
   13 C                |  11 C                |  14 C                |    90.00
   13 C                |  11 C                |  16 C                |    90.00
   14 C                |  11 C                |  16 C                |    90.00
    4 H                |  12 C                |  13 C                |   125.26
    4 H                |  12 C                |  14 C                |   125.26
    4 H                |  12 C                |  15 C                |   125.26
   13 C                |  12 C                |  14 C                |    90.00
   13 C                |  12 C                |  15 C                |    90.00
   14 C                |  12 C                |  15 C                |    90.00
    5 H                |  13 C                |  10 C                |   125.26
    5 H                |  13 C                |  11 C                |   125.26
    5 H                |  13 C                |  12 C                |   125.26
   10 C                |  13 C                |  11 C                |    90.00
   10 C                |  13 C                |  12 C                |    90.00
   11 C                |  13 C                |  12 C                |    90.00
    6 H                |  14 C                |   9 C                |   125.26
    6 H                |  14 C                |  11 C                |   125.26
    6 H                |  14 C                |  12 C                |   125.26
    9 C                |  14 C                |  11 C                |    90.00
    9 C                |  14 C                |  12 C                |    90.00
   11 C                |  14 C                |  12 C                |    90.00
    7 H                |  15 C                |   9 C                |   125.26
    7 H                |  15 C                |  10 C                |   125.26
    7 H                |  15 C                |  12 C                |   125.26
    9 C                |  15 C                |  10 C                |    90.00
    9 C                |  15 C                |  12 C                |    90.00
   10 C                |  15 C                |  12 C                |    90.00
    8 H                |  16 C                |   9 C                |   125.26
    8 H                |  16 C                |  10 C                |   125.26
    8 H                |  16 C                |  11 C                |   125.26
    9 C                |  16 C                |  10 C                |    90.00
    9 C                |  16 C                |  11 C                |    90.00
   10 C                |  16 C                |  11 C                |    90.00
 ------------------------------------------------------------------------------
                            number of included internuclear angles:         48
 ==============================================================================



  library name resolved from: environment
  library file name is: </home/dasha/bin/nwchem-6.6/src/basis/libraries/>
  
                      Basis "ao basis" -> "" (spherical)
                      -----
  H (Hydrogen)
  ------------
            Exponent  Coefficients 
       -------------- ---------------------------------------------------------
  1 S  1.30100000E+01  0.019685
  1 S  1.96200000E+00  0.137977
  1 S  4.44600000E-01  0.478148

  2 S  1.22000000E-01  1.000000

  3 P  7.27000000E-01  1.000000

  C (Carbon)
  ----------
            Exponent  Coefficients 
       -------------- ---------------------------------------------------------
  1 S  6.66500000E+03  0.000692
  1 S  1.00000000E+03  0.005329
  1 S  2.28000000E+02  0.027077
  1 S  6.47100000E+01  0.101718
  1 S  2.10600000E+01  0.274740
  1 S  7.49500000E+00  0.448564
  1 S  2.79700000E+00  0.285074
  1 S  5.21500000E-01  0.015204

  2 S  6.66500000E+03 -0.000146
  2 S  1.00000000E+03 -0.001154
  2 S  2.28000000E+02 -0.005725
  2 S  6.47100000E+01 -0.023312
  2 S  2.10600000E+01 -0.063955
  2 S  7.49500000E+00 -0.149981
  2 S  2.79700000E+00 -0.127262
  2 S  5.21500000E-01  0.544529

  3 S  1.59600000E-01  1.000000

  4 P  9.43900000E+00  0.038109
  4 P  2.00200000E+00  0.209480
  4 P  5.45600000E-01  0.508557

  5 P  1.51700000E-01  1.000000

  6 D  5.50000000E-01  1.000000



 Summary of "ao basis" -> "" (spherical)
 ------------------------------------------------------------------------------
       Tag                 Description            Shells   Functions and Types
 ---------------- ------------------------------  ------  ---------------------
 H                          cc-pVDZ                  3        5   2s1p
 C                          cc-pVDZ                  6       14   3s2p1d




                   NWChem Nuclear Hessian and Frequency Analysis
                   ---------------------------------------------

                       reusing previously generated Hessian
                       ------------------------------------
  re-using hessian in file cubane.hess


  Vibrational analysis via the FX method 

  See chapter 2 in "Molecular Vibrations" by Wilson, Decius and Cross

  Vib: Default input used 

  Nuclear Hessian passed symmetry test 



 ---------------------------- Atom information ----------------------------
     atom    #        X              Y              Z            mass
 --------------------------------------------------------------------------
    H        1  2.6929251D+00  2.6929251D+00  2.6929251D+00  1.0078250D+00
    H        2 -2.6929251D+00 -2.6929251D+00  2.6929251D+00  1.0078250D+00
    H        3 -2.6929251D+00  2.6929251D+00 -2.6929251D+00  1.0078250D+00
    H        4  2.6929251D+00 -2.6929251D+00 -2.6929251D+00  1.0078250D+00
    H        5 -2.6929251D+00 -2.6929251D+00 -2.6929251D+00  1.0078250D+00
    H        6  2.6929251D+00  2.6929251D+00 -2.6929251D+00  1.0078250D+00
    H        7  2.6929251D+00 -2.6929251D+00  2.6929251D+00  1.0078250D+00
    H        8 -2.6929251D+00  2.6929251D+00  2.6929251D+00  1.0078250D+00
    C        9  1.4921548D+00  1.4921548D+00  1.4921548D+00  1.2000000D+01
    C       10 -1.4921548D+00 -1.4921548D+00  1.4921548D+00  1.2000000D+01
    C       11 -1.4921548D+00  1.4921548D+00 -1.4921548D+00  1.2000000D+01
    C       12  1.4921548D+00 -1.4921548D+00 -1.4921548D+00  1.2000000D+01
    C       13 -1.4921548D+00 -1.4921548D+00 -1.4921548D+00  1.2000000D+01
    C       14  1.4921548D+00  1.4921548D+00 -1.4921548D+00  1.2000000D+01
    C       15  1.4921548D+00 -1.4921548D+00  1.4921548D+00  1.2000000D+01
    C       16 -1.4921548D+00  1.4921548D+00  1.4921548D+00  1.2000000D+01
 --------------------------------------------------------------------------




          ----------------------------------------------------
          MASS-WEIGHTED NUCLEAR HESSIAN (Hartree/Bohr/Bohr/Kamu)
          ----------------------------------------------------


               1            2            3            4            5            6            7            8            9           10
   ----- ----- ----- ----- -----
    1    1.40625D+02
    2    1.02532D+02  1.40625D+02
    3    1.02533D+02  1.02533D+02  1.40632D+02
    4    7.51515D-02 -1.03460D+00  4.51682D-01  1.40625D+02
    5   -1.03460D+00  7.50613D-02  4.51634D-01  1.02532D+02  1.40625D+02
    6   -4.51682D-01 -4.51634D-01  4.07870D-01 -1.02533D+02 -1.02533D+02  1.40632D+02
    7    7.36075D-02  4.52026D-01 -1.03623D+00  4.07597D-01 -4.52064D-01  4.52048D-01  1.40625D+02
    8   -4.52026D-01  4.07749D-01 -4.51958D-01  4.52064D-01  7.38656D-02  1.03631D+00 -1.02532D+02  1.40625D+02
    9   -1.03623D+00  4.51958D-01  7.49668D-02 -4.52048D-01  1.03631D+00  7.48540D-02  1.02533D+02 -1.02533D+02  1.40632D+02
   10    4.07597D-01 -4.52064D-01 -4.52048D-01  7.36075D-02  4.52026D-01  1.03623D+00  7.51515D-02  1.03460D+00  4.51682D-01  1.40625D+02
   11    4.52064D-01  7.38656D-02 -1.03631D+00 -4.52026D-01  4.07749D-01  4.51958D-01  1.03460D+00  7.50613D-02 -4.51634D-01 -1.02532D+02
   12    4.52048D-01 -1.03631D+00  7.48540D-02  1.03623D+00 -4.51958D-01  7.49668D-02 -4.51682D-01  4.51634D-01  4.07870D-01 -1.02533D+02
   13   -1.09952D-01 -1.40710D-01 -1.40878D-01  8.41925D-01 -4.29502D-01 -6.85237D-01  8.42382D-01 -6.85077D-01 -4.29335D-01  2.14658D+00
   14   -1.40710D-01 -1.09609D-01 -1.40642D-01 -4.29502D-01  8.42162D-01 -6.85275D-01  6.85077D-01  2.14629D+00  6.85346D-01 -6.85008D-01
   15   -1.40878D-01 -1.40642D-01 -1.09557D-01  6.85237D-01  6.85275D-01  2.14720D+00 -4.29335D-01 -6.85346D-01  8.42371D-01 -6.84689D-01
   16    8.41925D-01 -4.29502D-01  6.85237D-01 -1.09952D-01 -1.40710D-01  1.40878D-01  2.14658D+00  6.85008D-01 -6.84689D-01  8.42382D-01
   17   -4.29502D-01  8.42162D-01  6.85275D-01 -1.40710D-01 -1.09609D-01  1.40642D-01 -6.85008D-01  8.42366D-01  4.29281D-01  6.85077D-01
   18   -6.85237D-01 -6.85275D-01  2.14720D+00  1.40878D-01  1.40642D-01 -1.09557D-01  6.84689D-01  4.29281D-01  8.42242D-01  4.29335D-01
   19    8.42382D-01  6.85077D-01 -4.29335D-01  2.14658D+00 -6.85008D-01  6.84689D-01 -1.09952D-01  1.40710D-01 -1.40878D-01  8.41925D-01
   20   -6.85077D-01  2.14629D+00 -6.85346D-01  6.85008D-01  8.42366D-01  4.29281D-01  1.40710D-01 -1.09609D-01  1.40642D-01  4.29502D-01
   21   -4.29335D-01  6.85346D-01  8.42371D-01 -6.84689D-01  4.29281D-01  8.42242D-01 -1.40878D-01  1.40642D-01 -1.09557D-01  6.85237D-01
   22    2.14658D+00 -6.85008D-01 -6.84689D-01  8.42382D-01  6.85077D-01  4.29335D-01  8.41925D-01  4.29502D-01  6.85237D-01 -1.09952D-01
   23    6.85008D-01  8.42366D-01 -4.29281D-01 -6.85077D-01  2.14629D+00  6.85346D-01  4.29502D-01  8.42162D-01 -6.85275D-01  1.40710D-01
   24    6.84689D-01 -4.29281D-01  8.42242D-01  4.29335D-01 -6.85346D-01  8.42371D-01 -6.85237D-01  6.85275D-01  2.14720D+00  1.40878D-01
   25   -4.19603D+01 -2.75191D+01 -2.85233D+01 -1.14631D+00  3.08075D-02 -1.41283D+00 -2.44908D+00 -1.10413D+00 -4.90901D-01 -1.11872D+00
   26   -2.79470D+01 -4.23708D+01 -2.91548D+01 -5.15191D-01  2.24443D-01 -1.79739D+00 -1.80995D+00 -9.88307D-01 -8.20928D-01 -1.69944D+00
   27   -2.78217D+01 -2.97286D+01 -4.29969D+01 -7.00637D-01 -2.53682D-02 -3.37924D-01 -1.30054D+00 -2.02944D+00 -5.29093D-01 -1.12826D+00
   28   -1.14631D+00  3.08075D-02  1.41283D+00 -4.19603D+01 -2.75191D+01  2.85233D+01 -1.11872D+00  9.06633D-03  8.25165D-01 -2.44908D+00
   29   -5.15191D-01  2.24443D-01  1.79739D+00 -2.79470D+01 -4.23708D+01  2.91548D+01 -1.69944D+00 -2.22690D-01  1.21810D+00 -1.80995D+00
   30    7.00637D-01  2.53682D-02 -3.37924D-01  2.78217D+01  2.97286D+01 -4.29969D+01  1.12826D+00  2.14847D-01 -1.09104D+00  1.30054D+00
   31   -2.44908D+00  1.10413D+00 -4.90901D-01 -1.11872D+00 -9.06633D-03 -8.25165D-01 -4.19603D+01  2.75191D+01 -2.85233D+01 -1.14631D+00
   32    1.80995D+00 -9.88307D-01  8.20928D-01  1.69944D+00 -2.22690D-01  1.21810D+00  2.79470D+01 -4.23708D+01  2.91548D+01  5.15191D-01
   33   -1.30054D+00  2.02944D+00 -5.29093D-01 -1.12826D+00  2.14847D-01 -1.09104D+00 -2.78217D+01  2.97286D+01 -4.29969D+01 -7.00637D-01
   34   -1.11872D+00 -9.06633D-03  8.25165D-01 -2.44908D+00  1.10413D+00  4.90901D-01 -1.14631D+00 -3.08075D-02  1.41283D+00 -4.19603D+01
   35    1.69944D+00 -2.22690D-01 -1.21810D+00  1.80995D+00 -9.88307D-01 -8.20928D-01  5.15191D-01  2.24443D-01 -1.79739D+00  2.79470D+01
   36    1.12826D+00 -2.14847D-01 -1.09104D+00  1.30054D+00 -2.02944D+00 -5.29093D-01  7.00637D-01 -2.53682D-02 -3.37924D-01  2.78217D+01
   37   -3.39889D-01 -1.40538D+00 -6.19998D-01  1.38180D+00  1.44380D+00  3.55773D+00  1.40517D-01  3.86059D+00  7.95784D-01 -1.22725D+00
   38   -3.07815D-01  2.49807D-02 -6.13788D-01  1.60888D+00  1.02471D+00  3.04096D+00 -1.48477D+00  4.94840D-02 -1.04930D+00  2.16299D+00
   39   -2.76778D-01 -1.06646D+00  3.42562D-01 -8.06821D-01 -2.72987D-01  1.50958D-01  5.05528D-02  3.56110D+00  2.09764D-01  2.07782D+00
   40    1.38180D+00  1.44380D+00 -3.55773D+00 -3.39889D-01 -1.40538D+00  6.19998D-01 -1.22725D+00  4.82844D-01  7.55020D-01  1.40517D-01
   41    1.60888D+00  1.02471D+00 -3.04096D+00 -3.07815D-01  2.49807D-02  6.13788D-01  2.16299D+00  2.57266D+00 -1.60704D+00 -1.48477D+00
   42    8.06821D-01  2.72987D-01  1.50958D-01  2.76778D-01  1.06646D+00  3.42562D-01 -2.07782D+00 -2.78701D+00  1.34670D+00 -5.05528D-02
   43    1.40517D-01 -3.86059D+00  7.95784D-01 -1.22725D+00 -4.82844D-01 -7.55020D-01 -3.39889D-01  1.40538D+00 -6.19998D-01  1.38180D+00
   44    1.48477D+00  4.94840D-02  1.04930D+00 -2.16299D+00  2.57266D+00 -1.60704D+00  3.07815D-01  2.49807D-02  6.13788D-01 -1.60888D+00
   45    5.05528D-02 -3.56110D+00  2.09764D-01  2.07782D+00 -2.78701D+00  1.34670D+00 -2.76778D-01  1.06646D+00  3.42562D-01 -8.06821D-01
   46   -1.22725D+00 -4.82844D-01  7.55020D-01  1.40517D-01 -3.86059D+00 -7.95784D-01  1.38180D+00 -1.44380D+00 -3.55773D+00 -3.39889D-01
   47   -2.16299D+00  2.57266D+00  1.60704D+00  1.48477D+00  4.94840D-02 -1.04930D+00 -1.60888D+00  1.02471D+00  3.04096D+00  3.07815D-01
   48   -2.07782D+00  2.78701D+00  1.34670D+00 -5.05528D-02  3.56110D+00  2.09764D-01  8.06821D-01 -2.72987D-01  1.50958D-01  2.76778D-01


              11           12           13           14           15           16           17           18           19           20
   ----- ----- ----- ----- -----
   11    1.40625D+02
   12    1.02533D+02  1.40632D+02
   13    6.85008D-01  6.84689D-01  1.40625D+02
   14    8.42366D-01 -4.29281D-01  1.02532D+02  1.40625D+02
   15   -4.29281D-01  8.42242D-01  1.02533D+02  1.02533D+02  1.40632D+02
   16   -6.85077D-01  4.29335D-01  7.51515D-02 -1.03460D+00  4.51682D-01  1.40625D+02
   17    2.14629D+00 -6.85346D-01 -1.03460D+00  7.50613D-02  4.51634D-01  1.02532D+02  1.40625D+02
   18    6.85346D-01  8.42371D-01 -4.51682D-01 -4.51634D-01  4.07870D-01 -1.02533D+02 -1.02533D+02  1.40632D+02
   19    4.29502D-01 -6.85237D-01  7.36075D-02  4.52026D-01 -1.03623D+00  4.07597D-01 -4.52064D-01  4.52048D-01  1.40625D+02
   20    8.42162D-01  6.85275D-01 -4.52026D-01  4.07749D-01 -4.51958D-01  4.52064D-01  7.38656D-02  1.03631D+00 -1.02532D+02  1.40625D+02
   21   -6.85275D-01  2.14720D+00 -1.03623D+00  4.51958D-01  7.49668D-02 -4.52048D-01  1.03631D+00  7.48540D-02  1.02533D+02 -1.02533D+02
   22    1.40710D-01  1.40878D-01  4.07597D-01 -4.52064D-01 -4.52048D-01  7.36075D-02  4.52026D-01  1.03623D+00  7.51515D-02  1.03460D+00
   23   -1.09609D-01 -1.40642D-01  4.52064D-01  7.38656D-02 -1.03631D+00 -4.52026D-01  4.07749D-01  4.51958D-01  1.03460D+00  7.50613D-02
   24   -1.40642D-01 -1.09557D-01  4.52048D-01 -1.03631D+00  7.48540D-02  1.03623D+00 -4.51958D-01  7.49668D-02 -4.51682D-01  4.51634D-01
   25    9.06633D-03 -8.25165D-01 -3.39889D-01 -1.40538D+00 -6.19998D-01  1.38180D+00  1.44380D+00  3.55773D+00  1.40517D-01  3.86059D+00
   26   -2.22690D-01 -1.21810D+00 -3.07815D-01  2.49807D-02 -6.13788D-01  1.60888D+00  1.02471D+00  3.04096D+00 -1.48477D+00  4.94840D-02
   27   -2.14847D-01 -1.09104D+00 -2.76778D-01 -1.06646D+00  3.42562D-01 -8.06821D-01 -2.72987D-01  1.50958D-01  5.05528D-02  3.56110D+00
   28   -1.10413D+00  4.90901D-01  1.38180D+00  1.44380D+00 -3.55773D+00 -3.39889D-01 -1.40538D+00  6.19998D-01 -1.22725D+00  4.82844D-01
   29   -9.88307D-01  8.20928D-01  1.60888D+00  1.02471D+00 -3.04096D+00 -3.07815D-01  2.49807D-02  6.13788D-01  2.16299D+00  2.57266D+00
   30    2.02944D+00 -5.29093D-01  8.06821D-01  2.72987D-01  1.50958D-01  2.76778D-01  1.06646D+00  3.42562D-01 -2.07782D+00 -2.78701D+00
   31   -3.08075D-02 -1.41283D+00  1.40517D-01 -3.86059D+00  7.95784D-01 -1.22725D+00 -4.82844D-01 -7.55020D-01 -3.39889D-01  1.40538D+00
   32    2.24443D-01  1.79739D+00  1.48477D+00  4.94840D-02  1.04930D+00 -2.16299D+00  2.57266D+00 -1.60704D+00  3.07815D-01  2.49807D-02
   33    2.53682D-02 -3.37924D-01  5.05528D-02 -3.56110D+00  2.09764D-01  2.07782D+00 -2.78701D+00  1.34670D+00 -2.76778D-01  1.06646D+00
   34    2.75191D+01  2.85233D+01 -1.22725D+00 -4.82844D-01  7.55020D-01  1.40517D-01 -3.86059D+00 -7.95784D-01  1.38180D+00 -1.44380D+00
   35   -4.23708D+01 -2.91548D+01 -2.16299D+00  2.57266D+00  1.60704D+00  1.48477D+00  4.94840D-02 -1.04930D+00 -1.60888D+00  1.02471D+00
   36   -2.97286D+01 -4.29969D+01 -2.07782D+00  2.78701D+00  1.34670D+00 -5.05528D-02  3.56110D+00  2.09764D-01  8.06821D-01 -2.72987D-01
   37    4.82844D-01 -7.55020D-01 -4.19603D+01 -2.75191D+01 -2.85233D+01 -1.14631D+00  3.08075D-02 -1.41283D+00 -2.44908D+00 -1.10413D+00
   38    2.57266D+00  1.60704D+00 -2.79470D+01 -4.23708D+01 -2.91548D+01 -5.15191D-01  2.24443D-01 -1.79739D+00 -1.80995D+00 -9.88307D-01
   39    2.78701D+00  1.34670D+00 -2.78217D+01 -2.97286D+01 -4.29969D+01 -7.00637D-01 -2.53682D-02 -3.37924D-01 -1.30054D+00 -2.02944D+00
   40    3.86059D+00 -7.95784D-01 -1.14631D+00  3.08075D-02  1.41283D+00 -4.19603D+01 -2.75191D+01  2.85233D+01 -1.11872D+00  9.06633D-03
   41    4.94840D-02  1.04930D+00 -5.15191D-01  2.24443D-01  1.79739D+00 -2.79470D+01 -4.23708D+01  2.91548D+01 -1.69944D+00 -2.22690D-01
   42   -3.56110D+00  2.09764D-01  7.00637D-01  2.53682D-02 -3.37924D-01  2.78217D+01  2.97286D+01 -4.29969D+01  1.12826D+00  2.14847D-01
   43   -1.44380D+00  3.55773D+00 -2.44908D+00  1.10413D+00 -4.90901D-01 -1.11872D+00 -9.06633D-03 -8.25165D-01 -4.19603D+01  2.75191D+01
   44    1.02471D+00 -3.04096D+00  1.80995D+00 -9.88307D-01  8.20928D-01  1.69944D+00 -2.22690D-01  1.21810D+00  2.79470D+01 -4.23708D+01
   45    2.72987D-01  1.50958D-01 -1.30054D+00  2.02944D+00 -5.29093D-01 -1.12826D+00  2.14847D-01 -1.09104D+00 -2.78217D+01  2.97286D+01
   46    1.40538D+00  6.19998D-01 -1.11872D+00 -9.06633D-03  8.25165D-01 -2.44908D+00  1.10413D+00  4.90901D-01 -1.14631D+00 -3.08075D-02
   47    2.49807D-02 -6.13788D-01  1.69944D+00 -2.22690D-01 -1.21810D+00  1.80995D+00 -9.88307D-01 -8.20928D-01  5.15191D-01  2.24443D-01
   48   -1.06646D+00  3.42562D-01  1.12826D+00 -2.14847D-01 -1.09104D+00  1.30054D+00 -2.02944D+00 -5.29093D-01  7.00637D-01 -2.53682D-02


              21           22           23           24           25           26           27           28           29           30
   ----- ----- ----- ----- -----
   21    1.40632D+02
   22    4.51682D-01  1.40625D+02
   23   -4.51634D-01 -1.02532D+02  1.40625D+02
   24    4.07870D-01 -1.02533D+02  1.02533D+02  1.40632D+02
   25    7.95784D-01 -1.22725D+00  4.82844D-01 -7.55020D-01  3.95733D+01
   26   -1.04930D+00  2.16299D+00  2.57266D+00  1.60704D+00  1.01097D+01  3.94071D+01
   27    2.09764D-01  2.07782D+00  2.78701D+00  1.34670D+00  1.01201D+01  1.01785D+01  3.92103D+01
   28    7.55020D-01  1.40517D-01  3.86059D+00 -7.95784D-01 -3.31216D+00 -2.18310D+00  3.44618D-01  3.95733D+01
   29   -1.60704D+00 -1.48477D+00  4.94840D-02  1.04930D+00 -2.18310D+00 -3.27495D+00  3.72616D-01  1.01097D+01  3.94071D+01
   30    1.34670D+00 -5.05528D-02 -3.56110D+00  2.09764D-01 -3.44618D-01 -3.72616D-01  1.02886D+00 -1.01201D+01 -1.01785D+01  3.92103D+01
   31   -6.19998D-01  1.38180D+00 -1.44380D+00  3.55773D+00 -3.33861D+00  4.66325D-01 -2.20992D+00  9.41522D-01 -4.70557D-01  4.41113D-01
   32    6.13788D-01 -1.60888D+00  1.02471D+00 -3.04096D+00 -4.66325D-01  8.68977D-01 -4.17181D-01  4.70557D-01 -3.30156D+00  2.19935D+00
   33    3.42562D-01 -8.06821D-01  2.72987D-01  1.50958D-01 -2.20992D+00  4.17181D-01 -3.26189D+00 -4.41113D-01  2.19935D+00 -3.24922D+00
   34   -3.55773D+00 -3.39889D-01  1.40538D+00  6.19998D-01  9.41522D-01 -4.70557D-01 -4.41113D-01 -3.33861D+00  4.66325D-01  2.20992D+00
   35    3.04096D+00  3.07815D-01  2.49807D-02 -6.13788D-01  4.70557D-01 -3.30156D+00 -2.19935D+00 -4.66325D-01  8.68977D-01  4.17181D-01
   36    1.50958D-01  2.76778D-01 -1.06646D+00  3.42562D-01  4.41113D-01 -2.19935D+00 -3.24922D+00  2.20992D+00 -4.17181D-01 -3.26189D+00
   37   -4.90901D-01 -1.11872D+00  9.06633D-03 -8.25165D-01  2.16338D-01  2.26150D-01  2.71657D-01 -3.07404D+00 -6.50946D-01  5.94819D-01
   38   -8.20928D-01 -1.69944D+00 -2.22690D-01 -1.21810D+00  2.26150D-01 -1.87451D-01  1.82994D-01 -6.50946D-01 -3.55363D+00  8.59649D-01
   39   -5.29093D-01 -1.12826D+00 -2.14847D-01 -1.09104D+00  2.71657D-01  1.82994D-01  7.76032D-02 -5.94819D-01 -8.59649D-01 -1.40252D+01
   40    8.25165D-01 -2.44908D+00 -1.10413D+00  4.90901D-01 -3.07404D+00 -6.50946D-01 -5.94819D-01  2.16338D-01  2.26150D-01 -2.71657D-01
   41    1.21810D+00 -1.80995D+00 -9.88307D-01  8.20928D-01 -6.50946D-01 -3.55363D+00 -8.59649D-01  2.26150D-01 -1.87451D-01 -1.82994D-01
   42   -1.09104D+00  1.30054D+00  2.02944D+00 -5.29093D-01  5.94819D-01  8.59649D-01 -1.40252D+01 -2.71657D-01 -1.82994D-01  7.76032D-02
   43   -2.85233D+01 -1.14631D+00 -3.08075D-02 -1.41283D+00 -3.65212D+00 -4.89695D-01 -1.08750D+00 -1.38149D+01  9.42438D-01 -6.75028D-01
   44    2.91548D+01  5.15191D-01  2.24443D-01  1.79739D+00  4.89695D-01 -1.43601D+01  8.13510D-01 -9.42438D-01 -4.09736D+00  1.01102D+00
   45   -4.29969D+01 -7.00637D-01  2.53682D-02 -3.37924D-01 -1.08750D+00 -8.13510D-01 -3.83389D+00  6.75028D-01  1.01102D+00 -3.51262D+00
   46    1.41283D+00 -4.19603D+01  2.75191D+01  2.85233D+01 -1.38149D+01  9.42438D-01  6.75028D-01 -3.65212D+00 -4.89695D-01  1.08750D+00
   47   -1.79739D+00  2.79470D+01 -4.23708D+01 -2.91548D+01 -9.42438D-01 -4.09736D+00 -1.01102D+00  4.89695D-01 -1.43601D+01 -8.13510D-01
   48   -3.37924D-01  2.78217D+01 -2.97286D+01 -4.29969D+01 -6.75028D-01 -1.01102D+00 -3.51262D+00  1.08750D+00  8.13510D-01 -3.83389D+00


              31           32           33           34           35           36           37           38           39           40
   ----- ----- ----- ----- -----
   31    3.95733D+01
   32   -1.01097D+01  3.94071D+01
   33    1.01201D+01 -1.01785D+01  3.92103D+01
   34   -3.31216D+00  2.18310D+00  3.44618D-01  3.95733D+01
   35    2.18310D+00 -3.27495D+00 -3.72616D-01 -1.01097D+01  3.94071D+01
   36   -3.44618D-01  3.72616D-01  1.02886D+00 -1.01201D+01  1.01785D+01  3.92103D+01
   37   -3.65212D+00  4.89695D-01 -1.08750D+00 -1.38149D+01 -9.42438D-01 -6.75028D-01  3.95733D+01
   38   -4.89695D-01 -1.43601D+01 -8.13510D-01  9.42438D-01 -4.09736D+00 -1.01102D+00  1.01097D+01  3.94071D+01
   39   -1.08750D+00  8.13510D-01 -3.83389D+00  6.75028D-01 -1.01102D+00 -3.51262D+00  1.01201D+01  1.01785D+01  3.92103D+01
   40   -1.38149D+01 -9.42438D-01  6.75028D-01 -3.65212D+00  4.89695D-01  1.08750D+00 -3.31216D+00 -2.18310D+00  3.44618D-01  3.95733D+01
   41    9.42438D-01 -4.09736D+00  1.01102D+00 -4.89695D-01 -1.43601D+01  8.13510D-01 -2.18310D+00 -3.27495D+00  3.72616D-01  1.01097D+01
   42   -6.75028D-01  1.01102D+00 -3.51262D+00  1.08750D+00 -8.13510D-01 -3.83389D+00 -3.44618D-01 -3.72616D-01  1.02886D+00 -1.01201D+01
   43    2.16338D-01 -2.26150D-01  2.71657D-01 -3.07404D+00  6.50946D-01  5.94819D-01 -3.33861D+00  4.66325D-01 -2.20992D+00  9.41522D-01
   44   -2.26150D-01 -1.87451D-01 -1.82994D-01  6.50946D-01 -3.55363D+00 -8.59649D-01 -4.66325D-01  8.68977D-01 -4.17181D-01  4.70557D-01
   45    2.71657D-01 -1.82994D-01  7.76032D-02 -5.94819D-01  8.59649D-01 -1.40252D+01 -2.20992D+00  4.17181D-01 -3.26189D+00 -4.41113D-01
   46   -3.07404D+00  6.50946D-01 -5.94819D-01  2.16338D-01 -2.26150D-01 -2.71657D-01  9.41522D-01 -4.70557D-01 -4.41113D-01 -3.33861D+00
   47    6.50946D-01 -3.55363D+00  8.59649D-01 -2.26150D-01 -1.87451D-01  1.82994D-01  4.70557D-01 -3.30156D+00 -2.19935D+00 -4.66325D-01
   48    5.94819D-01 -8.59649D-01 -1.40252D+01 -2.71657D-01  1.82994D-01  7.76032D-02  4.41113D-01 -2.19935D+00 -3.24922D+00  2.20992D+00


              41           42           43           44           45           46           47           48
   ----- ----- ----- ----- -----
   41    3.94071D+01
   42   -1.01785D+01  3.92103D+01
   43   -4.70557D-01  4.41113D-01  3.95733D+01
   44   -3.30156D+00  2.19935D+00 -1.01097D+01  3.94071D+01
   45    2.19935D+00 -3.24922D+00  1.01201D+01 -1.01785D+01  3.92103D+01
   46    4.66325D-01  2.20992D+00 -3.31216D+00  2.18310D+00  3.44618D-01  3.95733D+01
   47    8.68977D-01  4.17181D-01  2.18310D+00 -3.27495D+00 -3.72616D-01 -1.01097D+01  3.94071D+01
   48   -4.17181D-01 -3.26189D+00 -3.44618D-01  3.72616D-01  1.02886D+00 -1.01201D+01  1.01785D+01  3.92103D+01



          -------------------------------------------------
          NORMAL MODE EIGENVECTORS IN CARTESIAN COORDINATES
          -------------------------------------------------
                 (Frequencies expressed in cm-1)

                    1           2           3           4           5           6
 
 Frequency       -203.13      -95.09      -93.07      -80.28       77.52       79.64
 
           1    -0.11468    -0.11657    -0.00296     0.11564    -0.02990    -0.01200
           2    -0.00295     0.11890     0.00452    -0.02260     0.09785    -0.10725
           3     0.00926     0.00664     0.10220    -0.11423     0.02165     0.11795
           4    -0.11468     0.11657     0.00296     0.11564    -0.02990    -0.01200
           5    -0.00295    -0.11890    -0.00452    -0.02260     0.09785    -0.10725
           6    -0.00926     0.00664     0.10220     0.11423    -0.02165    -0.11795
           7    -0.11468    -0.11657    -0.00296    -0.11564     0.02990    -0.01200
           8     0.00295    -0.11890    -0.00452    -0.02260     0.09785     0.10725
           9     0.00926     0.00664     0.10220     0.11423    -0.02165     0.11795
          10    -0.11468     0.11657     0.00296    -0.11564     0.02990    -0.01200
          11     0.00295     0.11890     0.00452    -0.02260     0.09785     0.10725
          12    -0.00926     0.00664     0.10220    -0.11423     0.02165    -0.11795
          13    -0.11468     0.11657    -0.00296    -0.11564    -0.02990     0.01200
          14    -0.00295    -0.11890     0.00452     0.02260     0.09785     0.10725
          15     0.00926    -0.00664     0.10220     0.11423     0.02165    -0.11795
          16    -0.11468    -0.11657     0.00296    -0.11564    -0.02990     0.01200
          17    -0.00295     0.11890    -0.00452     0.02260     0.09785     0.10725
          18    -0.00926    -0.00664     0.10220    -0.11423    -0.02165     0.11795
          19    -0.11468     0.11657    -0.00296     0.11564     0.02990     0.01200
          20     0.00295     0.11890    -0.00452     0.02260     0.09785    -0.10725
          21     0.00926    -0.00664     0.10220    -0.11423    -0.02165    -0.11795
          22    -0.11468    -0.11657     0.00296     0.11564     0.02990     0.01200
          23     0.00295    -0.11890     0.00452     0.02260     0.09785    -0.10725
          24    -0.00926    -0.00664     0.10220     0.11423     0.02165     0.11795
          25    -0.09636    -0.06153     0.00203     0.05769    -0.00279    -0.00134
          26    -0.00239     0.06554     0.00345    -0.00417     0.09739    -0.06389
          27    -0.00367     0.00174     0.09758    -0.06934     0.00236     0.06471
          28    -0.09636     0.06153    -0.00203     0.05769    -0.00279    -0.00134
          29    -0.00239    -0.06554    -0.00345    -0.00417     0.09739    -0.06389
          30     0.00367     0.00174     0.09758     0.06934    -0.00236    -0.06471
          31    -0.09636    -0.06153     0.00203    -0.05769     0.00279    -0.00134
          32     0.00239    -0.06554    -0.00345    -0.00417     0.09739     0.06389
          33    -0.00367     0.00174     0.09758     0.06934    -0.00236     0.06471
          34    -0.09636     0.06153    -0.00203    -0.05769     0.00279    -0.00134
          35     0.00239     0.06554     0.00345    -0.00417     0.09739     0.06389
          36     0.00367     0.00174     0.09758    -0.06934     0.00236    -0.06471
          37    -0.09636     0.06153     0.00203    -0.05769    -0.00279     0.00134
          38    -0.00239    -0.06554     0.00345     0.00417     0.09739     0.06389
          39    -0.00367    -0.00174     0.09758     0.06934     0.00236    -0.06471
          40    -0.09636    -0.06153    -0.00203    -0.05769    -0.00279     0.00134
          41    -0.00239     0.06554    -0.00345     0.00417     0.09739     0.06389
          42     0.00367    -0.00174     0.09758    -0.06934    -0.00236     0.06471
          43    -0.09636     0.06153     0.00203     0.05769     0.00279     0.00134
          44     0.00239     0.06554    -0.00345     0.00417     0.09739    -0.06389
          45    -0.00367    -0.00174     0.09758    -0.06934    -0.00236    -0.06471
          46    -0.09636    -0.06153    -0.00203     0.05769     0.00279     0.00134
          47     0.00239    -0.06554     0.00345     0.00417     0.09739    -0.06389
          48     0.00367    -0.00174     0.09758     0.06934     0.00236     0.06471

                    7           8           9          10          11          12
 
 Frequency        588.89      633.17      635.13      654.92      670.38      798.83
 
           1     0.15786    -0.02039    -0.02718     0.00240     0.19089     0.15652
           2    -0.11137    -0.13921    -0.13087     0.01484    -0.03798    -0.10253
           3    -0.06850     0.00148     0.13899    -0.17292    -0.00784    -0.08913
           4    -0.15786    -0.02039     0.02718    -0.00240     0.19089     0.15652
           5     0.11137    -0.13921     0.13087    -0.01484    -0.03798    -0.10253
           6    -0.06850    -0.00148     0.13899    -0.17292     0.00784     0.08913
           7    -0.15786     0.02039     0.02718     0.00240     0.19089     0.15652
           8    -0.11137    -0.13921    -0.13087    -0.01484     0.03798     0.10253
           9     0.06850    -0.00148    -0.13899    -0.17292    -0.00784    -0.08913
          10     0.15786     0.02039    -0.02718    -0.00240     0.19089     0.15652
          11     0.11137    -0.13921     0.13087     0.01484     0.03798     0.10253
          12     0.06850     0.00148    -0.13899    -0.17292     0.00784     0.08913
          13     0.15786     0.02039    -0.02718    -0.00240    -0.19089    -0.15652
          14    -0.11137     0.13921    -0.13087    -0.01484     0.03798     0.10253
          15    -0.06850    -0.00148     0.13899     0.17292     0.00784     0.08913
          16    -0.15786     0.02039     0.02718     0.00240    -0.19089    -0.15652
          17     0.11137     0.13921     0.13087     0.01484     0.03798     0.10253
          18    -0.06850     0.00148     0.13899     0.17292    -0.00784    -0.08913
          19    -0.15786    -0.02039     0.02718    -0.00240    -0.19089    -0.15652
          20    -0.11137     0.13921    -0.13087     0.01484    -0.03798    -0.10253
          21     0.06850     0.00148    -0.13899     0.17292     0.00784     0.08913
          22     0.15786    -0.02039    -0.02718     0.00240    -0.19089    -0.15652
          23     0.11137     0.13921     0.13087    -0.01484    -0.03798    -0.10253
          24     0.06850    -0.00148    -0.13899     0.17292    -0.00784    -0.08913
          25     0.06040    -0.07085    -0.01290    -0.06102     0.03751     0.05241
          26    -0.04424    -0.02239    -0.06229    -0.05690     0.05447    -0.04678
          27    -0.03581    -0.05685     0.05699    -0.03043     0.05344    -0.04329
          28    -0.06040    -0.07085     0.01290     0.06102     0.03751     0.05241
          29     0.04424    -0.02239     0.06229     0.05690     0.05447    -0.04678
          30    -0.03581     0.05685     0.05699    -0.03043    -0.05344     0.04329
          31    -0.06040     0.07085     0.01290    -0.06102     0.03751     0.05241
          32    -0.04424    -0.02239    -0.06229     0.05690    -0.05447     0.04678
          33     0.03581     0.05685    -0.05699    -0.03043     0.05344    -0.04329
          34     0.06040     0.07085    -0.01290     0.06102     0.03751     0.05241
          35     0.04424    -0.02239     0.06229    -0.05690    -0.05447     0.04678
          36     0.03581    -0.05685    -0.05699    -0.03043    -0.05344     0.04329
          37     0.06040     0.07085    -0.01290     0.06102    -0.03751    -0.05241
          38    -0.04424     0.02239    -0.06229     0.05690    -0.05447     0.04678
          39    -0.03581     0.05685     0.05699     0.03043    -0.05344     0.04329
          40    -0.06040     0.07085     0.01290    -0.06102    -0.03751    -0.05241
          41     0.04424     0.02239     0.06229    -0.05690    -0.05447     0.04678
          42    -0.03581    -0.05685     0.05699     0.03043     0.05344    -0.04329
          43    -0.06040    -0.07085     0.01290     0.06102    -0.03751    -0.05241
          44    -0.04424     0.02239    -0.06229    -0.05690     0.05447    -0.04678
          45     0.03581    -0.05685    -0.05699     0.03043    -0.05344     0.04329
          46     0.06040    -0.07085    -0.01290    -0.06102    -0.03751    -0.05241
          47     0.04424     0.02239     0.06229     0.05690     0.05447    -0.04678
          48     0.03581     0.05685    -0.05699     0.03043     0.05344    -0.04329

                   13          14          15          16          17          18
 
 Frequency        816.00      825.00      828.00      830.04      835.69      897.22
 
           1     0.09601    -0.16568    -0.10081     0.22833    -0.00295    -0.18812
           2    -0.20840    -0.03921    -0.09695    -0.18215    -0.20574     0.22111
           3     0.10752     0.23877     0.18034    -0.02066     0.21424     0.00894
           4     0.09601    -0.16568     0.10081    -0.22833    -0.00295     0.18812
           5    -0.20840    -0.03921     0.09695     0.18215    -0.20574    -0.22111
           6    -0.10752    -0.23877     0.18034    -0.02066    -0.21424     0.00894
           7    -0.09601     0.16568    -0.10081     0.22833    -0.00295     0.18812
           8    -0.20840    -0.03921     0.09695     0.18215     0.20574     0.22111
           9    -0.10752    -0.23877     0.18034    -0.02066     0.21424    -0.00894
          10    -0.09601     0.16568     0.10081    -0.22833    -0.00295    -0.18812
          11    -0.20840    -0.03921    -0.09695    -0.18215     0.20574    -0.22111
          12     0.10752     0.23877     0.18034    -0.02066    -0.21424    -0.00894
          13    -0.09601    -0.16568     0.10081     0.22833    -0.00295     0.18812
          14     0.20840    -0.03921     0.09695    -0.18215    -0.20574    -0.22111
          15    -0.10752     0.23877    -0.18034    -0.02066     0.21424    -0.00894
          16    -0.09601    -0.16568    -0.10081    -0.22833    -0.00295    -0.18812
          17     0.20840    -0.03921    -0.09695     0.18215    -0.20574     0.22111
          18     0.10752    -0.23877    -0.18034    -0.02066    -0.21424    -0.00894
          19     0.09601     0.16568     0.10081     0.22833    -0.00295    -0.18812
          20     0.20840    -0.03921    -0.09695     0.18215     0.20574    -0.22111
          21     0.10752    -0.23877    -0.18034    -0.02066     0.21424     0.00894
          22     0.09601     0.16568    -0.10081    -0.22833    -0.00295     0.18812
          23     0.20840    -0.03921     0.09695    -0.18215     0.20574     0.22111
          24    -0.10752     0.23877    -0.18034    -0.02066    -0.21424     0.00894
          25     0.02667    -0.01583    -0.03743     0.04864     0.00198    -0.02561
          26    -0.05843    -0.00718    -0.03845    -0.02899    -0.03776     0.04995
          27     0.02998     0.05378     0.05624     0.00312     0.03971     0.01345
          28     0.02667    -0.01583     0.03743    -0.04864     0.00198     0.02561
          29    -0.05843    -0.00718     0.03845     0.02899    -0.03776    -0.04995
          30    -0.02998    -0.05378     0.05624     0.00312    -0.03971     0.01345
          31    -0.02667     0.01583    -0.03743     0.04864     0.00198     0.02561
          32    -0.05843    -0.00718     0.03845     0.02899     0.03776     0.04995
          33    -0.02998    -0.05378     0.05624     0.00312     0.03971    -0.01345
          34    -0.02667     0.01583     0.03743    -0.04864     0.00198    -0.02561
          35    -0.05843    -0.00718    -0.03845    -0.02899     0.03776    -0.04995
          36     0.02998     0.05378     0.05624     0.00312    -0.03971    -0.01345
          37    -0.02667    -0.01583     0.03743     0.04864     0.00198     0.02561
          38     0.05843    -0.00718     0.03845    -0.02899    -0.03776    -0.04995
          39    -0.02998     0.05378    -0.05624     0.00312     0.03971    -0.01345
          40    -0.02667    -0.01583    -0.03743    -0.04864     0.00198    -0.02561
          41     0.05843    -0.00718    -0.03845     0.02899    -0.03776     0.04995
          42     0.02998    -0.05378    -0.05624     0.00312    -0.03971    -0.01345
          43     0.02667     0.01583     0.03743     0.04864     0.00198    -0.02561
          44     0.05843    -0.00718    -0.03845     0.02899     0.03776    -0.04995
          45     0.02998    -0.05378    -0.05624     0.00312     0.03971     0.01345
          46     0.02667     0.01583    -0.03743    -0.04864     0.00198     0.02561
          47     0.05843    -0.00718     0.03845    -0.02899     0.03776     0.04995
          48    -0.02998     0.05378    -0.05624     0.00312    -0.03971     0.01345

                   19          20          21          22          23          24
 
 Frequency        901.12      923.01      943.51      953.14      978.03     1034.93
 
           1    -0.09879     0.12182     0.09147    -0.16884    -0.03601     0.12459
           2    -0.10433    -0.15069     0.17244     0.15055    -0.10107     0.04648
           3     0.25182    -0.11260    -0.13248    -0.09473    -0.03744     0.00363
           4     0.09879     0.12182    -0.09147    -0.16884     0.03601    -0.12459
           5     0.10433    -0.15069    -0.17244     0.15055     0.10107    -0.04648
           6     0.25182     0.11260    -0.13248     0.09473    -0.03744     0.00363
           7     0.09879     0.12182     0.09147     0.16884     0.03601    -0.12459
           8    -0.10433     0.15069    -0.17244     0.15055    -0.10107     0.04648
           9    -0.25182    -0.11260    -0.13248     0.09473     0.03744    -0.00363
          10    -0.09879     0.12182    -0.09147     0.16884    -0.03601     0.12459
          11     0.10433     0.15069     0.17244     0.15055     0.10107    -0.04648
          12    -0.25182     0.11260    -0.13248    -0.09473     0.03744    -0.00363
          13     0.09879     0.12182     0.09147    -0.16884    -0.03601    -0.12459
          14     0.10433    -0.15069     0.17244     0.15055    -0.10107    -0.04648
          15    -0.25182    -0.11260    -0.13248    -0.09473    -0.03744    -0.00363
          16    -0.09879     0.12182    -0.09147    -0.16884     0.03601     0.12459
          17    -0.10433    -0.15069    -0.17244     0.15055     0.10107     0.04648
          18    -0.25182     0.11260    -0.13248     0.09473    -0.03744    -0.00363
          19    -0.09879     0.12182     0.09147     0.16884     0.03601     0.12459
          20     0.10433     0.15069    -0.17244     0.15055    -0.10107    -0.04648
          21     0.25182    -0.11260    -0.13248     0.09473     0.03744     0.00363
          22     0.09879     0.12182    -0.09147     0.16884    -0.03601    -0.12459
          23    -0.10433     0.15069     0.17244     0.15055     0.10107     0.04648
          24     0.25182     0.11260    -0.13248    -0.09473     0.03744     0.00363
          25    -0.00092    -0.00917     0.04769    -0.06803    -0.06895     0.07217
          26    -0.01198    -0.04957     0.05833    -0.01672    -0.02936     0.04946
          27     0.05668    -0.06048     0.00816    -0.02139    -0.06096     0.03570
          28     0.00092    -0.00917    -0.04769    -0.06803     0.06895    -0.07217
          29     0.01198    -0.04957    -0.05833    -0.01672     0.02936    -0.04946
          30     0.05668     0.06048     0.00816     0.02139    -0.06096     0.03570
          31     0.00092    -0.00917     0.04769     0.06803     0.06895    -0.07217
          32    -0.01198     0.04957    -0.05833    -0.01672    -0.02936     0.04946
          33    -0.05668    -0.06048     0.00816     0.02139     0.06096    -0.03570
          34    -0.00092    -0.00917    -0.04769     0.06803    -0.06895     0.07217
          35     0.01198     0.04957     0.05833    -0.01672     0.02936    -0.04946
          36    -0.05668     0.06048     0.00816    -0.02139     0.06096    -0.03570
          37     0.00092    -0.00917     0.04769    -0.06803    -0.06895    -0.07217
          38     0.01198    -0.04957     0.05833    -0.01672    -0.02936    -0.04946
          39    -0.05668    -0.06048     0.00816    -0.02139    -0.06096    -0.03570
          40    -0.00092    -0.00917    -0.04769    -0.06803     0.06895     0.07217
          41    -0.01198    -0.04957    -0.05833    -0.01672     0.02936     0.04946
          42    -0.05668     0.06048     0.00816     0.02139    -0.06096    -0.03570
          43    -0.00092    -0.00917     0.04769     0.06803     0.06895     0.07217
          44     0.01198     0.04957    -0.05833    -0.01672    -0.02936    -0.04946
          45     0.05668    -0.06048     0.00816     0.02139     0.06096     0.03570
          46     0.00092    -0.00917    -0.04769     0.06803    -0.06895    -0.07217
          47    -0.01198     0.04957     0.05833    -0.01672     0.02936     0.04946
          48     0.05668     0.06048     0.00816    -0.02139     0.06096     0.03570

                   25          26          27          28          29          30
 
 Frequency       1087.42     1096.44     1096.86     1147.41     1148.32     1152.18
 
           1     0.12507    -0.00787    -0.16511     0.14546    -0.02424    -0.06286
           2    -0.14180    -0.11975     0.02777    -0.00452    -0.20994    -0.14921
           3     0.03142     0.14498     0.10870    -0.12161     0.23168     0.24490
           4    -0.12507    -0.00787    -0.16511    -0.14546    -0.02424     0.06286
           5     0.14180    -0.11975     0.02777     0.00452    -0.20994     0.14921
           6     0.03142    -0.14498    -0.10870    -0.12161    -0.23168     0.24490
           7     0.12507    -0.00787     0.16511    -0.14546    -0.02424     0.06286
           8     0.14180     0.11975     0.02777    -0.00452     0.20994    -0.14921
           9     0.03142     0.14498    -0.10870     0.12161     0.23168    -0.24490
          10    -0.12507    -0.00787     0.16511     0.14546    -0.02424    -0.06286
          11    -0.14180     0.11975     0.02777     0.00452     0.20994     0.14921
          12     0.03142    -0.14498     0.10870     0.12161    -0.23168    -0.24490
          13     0.12507    -0.00787    -0.16511    -0.14546     0.02424    -0.06286
          14    -0.14180    -0.11975     0.02777     0.00452     0.20994    -0.14921
          15     0.03142     0.14498     0.10870     0.12161    -0.23168     0.24490
          16    -0.12507    -0.00787    -0.16511     0.14546     0.02424     0.06286
          17     0.14180    -0.11975     0.02777    -0.00452     0.20994     0.14921
          18     0.03142    -0.14498    -0.10870     0.12161     0.23168     0.24490
          19     0.12507    -0.00787     0.16511     0.14546     0.02424     0.06286
          20     0.14180     0.11975     0.02777     0.00452    -0.20994    -0.14921
          21     0.03142     0.14498    -0.10870    -0.12161    -0.23168    -0.24490
          22    -0.12507    -0.00787     0.16511    -0.14546     0.02424    -0.06286
          23    -0.14180     0.11975     0.02777    -0.00452    -0.20994     0.14921
          24     0.03142    -0.14498     0.10870    -0.12161     0.23168    -0.24490
          25    -0.05216     0.00266     0.04953    -0.05526     0.00267     0.02287
          26     0.06782     0.06701    -0.00558     0.00347     0.03027     0.03917
          27    -0.00320    -0.05427    -0.06772     0.06580    -0.03513    -0.03347
          28     0.05216     0.00266     0.04953     0.05526     0.00267    -0.02287
          29    -0.06782     0.06701    -0.00558    -0.00347     0.03027    -0.03917
          30    -0.00320     0.05427     0.06772     0.06580     0.03513    -0.03347
          31    -0.05216     0.00266    -0.04953     0.05526     0.00267    -0.02287
          32    -0.06782    -0.06701    -0.00558     0.00347    -0.03027     0.03917
          33    -0.00320    -0.05427     0.06772    -0.06580    -0.03513     0.03347
          34     0.05216     0.00266    -0.04953    -0.05526     0.00267     0.02287
          35     0.06782    -0.06701    -0.00558    -0.00347    -0.03027    -0.03917
          36    -0.00320     0.05427    -0.06772    -0.06580     0.03513     0.03347
          37    -0.05216     0.00266     0.04953     0.05526    -0.00267     0.02287
          38     0.06782     0.06701    -0.00558    -0.00347    -0.03027     0.03917
          39    -0.00320    -0.05427    -0.06772    -0.06580     0.03513    -0.03347
          40     0.05216     0.00266     0.04953    -0.05526    -0.00267    -0.02287
          41    -0.06782     0.06701    -0.00558     0.00347    -0.03027    -0.03917
          42    -0.00320     0.05427     0.06772    -0.06580    -0.03513    -0.03347
          43    -0.05216     0.00266    -0.04953    -0.05526    -0.00267    -0.02287
          44    -0.06782    -0.06701    -0.00558    -0.00347     0.03027     0.03917
          45    -0.00320    -0.05427     0.06772     0.06580     0.03513     0.03347
          46     0.05216     0.00266    -0.04953     0.05526    -0.00267     0.02287
          47     0.06782    -0.06701    -0.00558     0.00347     0.03027    -0.03917
          48    -0.00320     0.05427    -0.06772     0.06580    -0.03513     0.03347

                   31          32          33          34          35          36
 
 Frequency       1155.34     1161.84     1163.19     1188.89     1202.66     1215.14
 
           1     0.21236     0.07127    -0.21738     0.23672    -0.10176    -0.24210
           2     0.01203    -0.15667     0.22124    -0.15459    -0.06016     0.08603
           3    -0.22732     0.08961    -0.00291    -0.03620     0.23895     0.08533
           4     0.21236    -0.07127     0.21738    -0.23672     0.10176    -0.24210
           5     0.01203     0.15667    -0.22124     0.15459     0.06016     0.08603
           6     0.22732     0.08961    -0.00291    -0.03620     0.23895    -0.08533
           7    -0.21236    -0.07127    -0.21738    -0.23672    -0.10176    -0.24210
           8     0.01203    -0.15667    -0.22124    -0.15459     0.06016    -0.08603
           9     0.22732    -0.08961    -0.00291     0.03620     0.23895     0.08533
          10    -0.21236     0.07127     0.21738     0.23672     0.10176    -0.24210
          11     0.01203     0.15667     0.22124     0.15459    -0.06016    -0.08603
          12    -0.22732    -0.08961    -0.00291     0.03620     0.23895    -0.08533
          13    -0.21236    -0.07127     0.21738     0.23672    -0.10176    -0.24210
          14    -0.01203     0.15667    -0.22124    -0.15459    -0.06016     0.08603
          15     0.22732    -0.08961     0.00291    -0.03620     0.23895     0.08533
          16    -0.21236     0.07127    -0.21738    -0.23672     0.10176    -0.24210
          17    -0.01203    -0.15667     0.22124     0.15459     0.06016     0.08603
          18    -0.22732    -0.08961     0.00291    -0.03620     0.23895    -0.08533
          19     0.21236     0.07127     0.21738    -0.23672    -0.10176    -0.24210
          20    -0.01203     0.15667     0.22124    -0.15459     0.06016    -0.08603
          21    -0.22732     0.08961     0.00291     0.03620     0.23895     0.08533
          22     0.21236    -0.07127    -0.21738     0.23672     0.10176    -0.24210
          23    -0.01203    -0.15667    -0.22124     0.15459    -0.06016    -0.08603
          24     0.22732     0.08961     0.00291     0.03620     0.23895    -0.08533
          25    -0.03269    -0.03441     0.03510    -0.03184     0.05192     0.02732
          26    -0.00687     0.07065    -0.03322     0.04305     0.03473    -0.04086
          27     0.03408    -0.03285     0.00074     0.02693    -0.02335    -0.04296
          28    -0.03269     0.03441    -0.03510     0.03184    -0.05192     0.02732
          29    -0.00687    -0.07065     0.03322    -0.04305    -0.03473    -0.04086
          30    -0.03408    -0.03285     0.00074     0.02693    -0.02335     0.04296
          31     0.03269     0.03441     0.03510     0.03184     0.05192     0.02732
          32    -0.00687     0.07065     0.03322     0.04305    -0.03473     0.04086
          33    -0.03408     0.03285     0.00074    -0.02693    -0.02335    -0.04296
          34     0.03269    -0.03441    -0.03510    -0.03184    -0.05192     0.02732
          35    -0.00687    -0.07065    -0.03322    -0.04305     0.03473     0.04086
          36     0.03408     0.03285     0.00074    -0.02693    -0.02335     0.04296
          37     0.03269     0.03441    -0.03510    -0.03184     0.05192     0.02732
          38     0.00687    -0.07065     0.03322     0.04305     0.03473    -0.04086
          39    -0.03408     0.03285    -0.00074     0.02693    -0.02335    -0.04296
          40     0.03269    -0.03441     0.03510     0.03184    -0.05192     0.02732
          41     0.00687     0.07065    -0.03322    -0.04305    -0.03473    -0.04086
          42     0.03408     0.03285    -0.00074     0.02693    -0.02335     0.04296
          43    -0.03269    -0.03441    -0.03510     0.03184     0.05192     0.02732
          44     0.00687    -0.07065    -0.03322     0.04305    -0.03473     0.04086
          45     0.03408    -0.03285    -0.00074    -0.02693    -0.02335    -0.04296
          46    -0.03269     0.03441     0.03510    -0.03184    -0.05192     0.02732
          47     0.00687     0.07065     0.03322    -0.04305     0.03473     0.04086
          48    -0.03408    -0.03285    -0.00074    -0.02693    -0.02335     0.04296

                   37          38          39          40          41          42
 
 Frequency       1236.88     1242.05     1247.16     1267.14     3138.55     3145.49
 
           1    -0.04911     0.12477     0.13633     0.15439     0.19627     0.19366
           2     0.22754     0.11742    -0.15008    -0.13716     0.19412     0.19418
           3    -0.08593    -0.15289     0.10046    -0.10220     0.19491     0.19590
           4    -0.04911    -0.12477     0.13633     0.15439     0.19627     0.19366
           5     0.22754    -0.11742    -0.15008    -0.13716     0.19412     0.19418
           6     0.08593    -0.15289    -0.10046     0.10220    -0.19491    -0.19590
           7     0.04911     0.12477    -0.13633     0.15439     0.19627    -0.19366
           8     0.22754    -0.11742    -0.15008     0.13716    -0.19412     0.19418
           9     0.08593    -0.15289    -0.10046    -0.10220     0.19491    -0.19590
          10     0.04911    -0.12477    -0.13633     0.15439     0.19627    -0.19366
          11     0.22754     0.11742    -0.15008     0.13716    -0.19412     0.19418
          12    -0.08593    -0.15289     0.10046     0.10220    -0.19491     0.19590
          13    -0.04911    -0.12477    -0.13633    -0.15439    -0.19627     0.19366
          14     0.22754    -0.11742     0.15008     0.13716    -0.19412     0.19418
          15    -0.08593     0.15289    -0.10046     0.10220    -0.19491     0.19590
          16    -0.04911     0.12477    -0.13633    -0.15439    -0.19627     0.19366
          17     0.22754     0.11742     0.15008     0.13716    -0.19412     0.19418
          18     0.08593     0.15289     0.10046    -0.10220     0.19491    -0.19590
          19     0.04911    -0.12477     0.13633    -0.15439    -0.19627    -0.19366
          20     0.22754     0.11742     0.15008    -0.13716     0.19412     0.19418
          21     0.08593     0.15289     0.10046     0.10220    -0.19491    -0.19590
          22     0.04911     0.12477     0.13633    -0.15439    -0.19627    -0.19366
          23     0.22754    -0.11742     0.15008    -0.13716     0.19412     0.19418
          24    -0.08593     0.15289    -0.10046    -0.10220     0.19491     0.19590
          25     0.05257     0.00033    -0.00404    -0.07715    -0.01734    -0.01773
          26    -0.01848     0.00030     0.07809     0.00051    -0.01625    -0.01511
          27     0.04627     0.07738     0.00125    -0.00213    -0.01616    -0.01828
          28     0.05257    -0.00033    -0.00404    -0.07715    -0.01734    -0.01773
          29    -0.01848    -0.00030     0.07809     0.00051    -0.01625    -0.01511
          30    -0.04627     0.07738    -0.00125     0.00213     0.01616     0.01828
          31    -0.05257     0.00033     0.00404    -0.07715    -0.01734     0.01773
          32    -0.01848    -0.00030     0.07809    -0.00051     0.01625    -0.01511
          33    -0.04627     0.07738    -0.00125    -0.00213    -0.01616     0.01828
          34    -0.05257    -0.00033     0.00404    -0.07715    -0.01734     0.01773
          35    -0.01848     0.00030     0.07809    -0.00051     0.01625    -0.01511
          36     0.04627     0.07738     0.00125     0.00213     0.01616    -0.01828
          37     0.05257    -0.00033     0.00404     0.07715     0.01734    -0.01773
          38    -0.01848    -0.00030    -0.07809    -0.00051     0.01625    -0.01511
          39     0.04627    -0.07738    -0.00125     0.00213     0.01616    -0.01828
          40     0.05257     0.00033     0.00404     0.07715     0.01734    -0.01773
          41    -0.01848     0.00030    -0.07809    -0.00051     0.01625    -0.01511
          42    -0.04627    -0.07738     0.00125    -0.00213    -0.01616     0.01828
          43    -0.05257    -0.00033    -0.00404     0.07715     0.01734     0.01773
          44    -0.01848     0.00030    -0.07809     0.00051    -0.01625    -0.01511
          45    -0.04627    -0.07738     0.00125     0.00213     0.01616     0.01828
          46    -0.05257     0.00033    -0.00404     0.07715     0.01734     0.01773
          47    -0.01848    -0.00030    -0.07809     0.00051    -0.01625    -0.01511
          48     0.04627    -0.07738    -0.00125    -0.00213    -0.01616    -0.01828

                   43          44          45          46          47          48
 
 Frequency       3151.23     3152.30     3154.74     3162.73     3169.24     3173.48
 
           1     0.19257     0.19352     0.19324     0.19370     0.19266     0.19327
           2     0.19525     0.19375     0.19504     0.19332     0.19371     0.19299
           3     0.19321     0.19538     0.19403     0.19371     0.19418     0.19253
           4    -0.19257    -0.19352     0.19324    -0.19370    -0.19266     0.19327
           5    -0.19525    -0.19375     0.19504    -0.19332    -0.19371     0.19299
           6     0.19321     0.19538    -0.19403     0.19371     0.19418    -0.19253
           7    -0.19257     0.19352    -0.19324     0.19370    -0.19266     0.19327
           8     0.19525    -0.19375     0.19504    -0.19332     0.19371    -0.19299
           9    -0.19321     0.19538    -0.19403     0.19371    -0.19418     0.19253
          10     0.19257    -0.19352    -0.19324    -0.19370     0.19266     0.19327
          11    -0.19525     0.19375     0.19504     0.19332    -0.19371    -0.19299
          12    -0.19321     0.19538     0.19403     0.19371    -0.19418    -0.19253
          13     0.19257    -0.19352    -0.19324     0.19370    -0.19266     0.19327
          14     0.19525    -0.19375    -0.19504     0.19332    -0.19371     0.19299
          15     0.19321    -0.19538    -0.19403     0.19371    -0.19418     0.19253
          16    -0.19257     0.19352    -0.19324    -0.19370     0.19266     0.19327
          17    -0.19525     0.19375    -0.19504    -0.19332     0.19371     0.19299
          18     0.19321    -0.19538     0.19403     0.19371    -0.19418    -0.19253
          19    -0.19257    -0.19352     0.19324     0.19370     0.19266     0.19327
          20     0.19525     0.19375    -0.19504    -0.19332    -0.19371    -0.19299
          21    -0.19321    -0.19538     0.19403     0.19371     0.19418     0.19253
          22     0.19257     0.19352     0.19324    -0.19370    -0.19266     0.19327
          23    -0.19525    -0.19375    -0.19504     0.19332     0.19371    -0.19299
          24    -0.19321    -0.19538    -0.19403     0.19371     0.19418    -0.19253
          25    -0.01762    -0.01658    -0.01648    -0.01886    -0.01770    -0.01704
          26    -0.01815    -0.01735    -0.01838    -0.01887    -0.01811    -0.01921
          27    -0.01803    -0.01834    -0.01773    -0.01624    -0.01842    -0.01947
          28     0.01762     0.01658    -0.01648     0.01886     0.01770    -0.01704
          29     0.01815     0.01735    -0.01838     0.01887     0.01811    -0.01921
          30    -0.01803    -0.01834     0.01773    -0.01624    -0.01842     0.01947
          31     0.01762    -0.01658     0.01648    -0.01886     0.01770    -0.01704
          32    -0.01815     0.01735    -0.01838     0.01887    -0.01811     0.01921
          33     0.01803    -0.01834     0.01773    -0.01624     0.01842    -0.01947
          34    -0.01762     0.01658     0.01648     0.01886    -0.01770    -0.01704
          35     0.01815    -0.01735    -0.01838    -0.01887     0.01811     0.01921
          36     0.01803    -0.01834    -0.01773    -0.01624     0.01842     0.01947
          37    -0.01762     0.01658     0.01648    -0.01886     0.01770    -0.01704
          38    -0.01815     0.01735     0.01838    -0.01887     0.01811    -0.01921
          39    -0.01803     0.01834     0.01773    -0.01624     0.01842    -0.01947
          40     0.01762    -0.01658     0.01648     0.01886    -0.01770    -0.01704
          41     0.01815    -0.01735     0.01838     0.01887    -0.01811    -0.01921
          42    -0.01803     0.01834    -0.01773    -0.01624     0.01842     0.01947
[...]
           6     0.02327     0.14278     0.10682     0.22154    -0.12161     0.24490
           7     0.12794    -0.00278    -0.17311     0.01581    -0.14546     0.06286
           8     0.13906    -0.12035    -0.01458    -0.21750    -0.00452    -0.14921
           9     0.02327    -0.14278     0.10682    -0.22154     0.12161    -0.24490
          10    -0.12794    -0.00278    -0.17311     0.01581     0.14546    -0.06286
          11    -0.13906    -0.12035    -0.01458    -0.21750     0.00452     0.14921
          12     0.02327     0.14278    -0.10682     0.22154     0.12161    -0.24490
          13     0.12794    -0.00278     0.17311    -0.01581    -0.14546    -0.06286
          14    -0.13906     0.12035    -0.01458    -0.21750     0.00452    -0.14921
          15     0.02327    -0.14278    -0.10682     0.22154     0.12161     0.24490
          16    -0.12794    -0.00278     0.17311    -0.01581     0.14546     0.06286
          17     0.13906     0.12035    -0.01458    -0.21750    -0.00452     0.14921
          18     0.02327     0.14278     0.10682    -0.22154     0.12161     0.24490
          19     0.12794    -0.00278    -0.17311    -0.01581     0.14546     0.06286
          20     0.13906    -0.12035    -0.01458     0.21750     0.00452    -0.14921
          21     0.02327    -0.14278     0.10682     0.22154    -0.12161    -0.24490
          22    -0.12794    -0.00278    -0.17311    -0.01581    -0.14546    -0.06286
          23    -0.13906    -0.12035    -0.01458     0.21750    -0.00452     0.14921
          24     0.02327     0.14278    -0.10682    -0.22154    -0.12161    -0.24490
          25    -0.05407     0.00023    -0.03477     0.00909    -0.05526     0.02287
          26     0.06667    -0.07078     0.00122    -0.03186     0.00347     0.03917
          27    -0.00195     0.04977     0.07559     0.03468     0.06580    -0.03347
          28     0.05407     0.00023    -0.03477     0.00909     0.05526    -0.02287
          29    -0.06667    -0.07078     0.00122    -0.03186    -0.00347    -0.03917
          30    -0.00195    -0.04977    -0.07559    -0.03468     0.06580    -0.03347
          31    -0.05407     0.00023     0.03477     0.00909     0.05526    -0.02287
          32    -0.06667     0.07078     0.00122     0.03186     0.00347     0.03917
          33    -0.00195     0.04977    -0.07559     0.03468    -0.06580     0.03347
          34     0.05407     0.00023     0.03477     0.00909    -0.05526     0.02287
          35     0.06667     0.07078     0.00122     0.03186    -0.00347    -0.03917
          36    -0.00195    -0.04977     0.07559    -0.03468    -0.06580     0.03347
          37    -0.05407     0.00023    -0.03477    -0.00909     0.05526     0.02287
          38     0.06667    -0.07078     0.00122     0.03186    -0.00347     0.03917
          39    -0.00195     0.04977     0.07559    -0.03468    -0.06580    -0.03347
          40     0.05407     0.00023    -0.03477    -0.00909    -0.05526    -0.02287
          41    -0.06667    -0.07078     0.00122     0.03186     0.00347    -0.03917
          42    -0.00195    -0.04977    -0.07559     0.03468    -0.06580    -0.03347
          43    -0.05407     0.00023     0.03477    -0.00909    -0.05526    -0.02287
          44    -0.06667     0.07078     0.00122    -0.03186    -0.00347     0.03917
          45    -0.00195     0.04977    -0.07559    -0.03468     0.06580     0.03347
          46     0.05407     0.00023     0.03477    -0.00909     0.05526     0.02287
          47     0.06667     0.07078     0.00122    -0.03186     0.00347    -0.03917
          48    -0.00195    -0.04977     0.07559     0.03468     0.06580     0.03347

                   31          32          33          34          35          36
 
 P.Frequency     1157.54     1161.84     1174.10     1188.89     1240.53     1241.86
 
           1     0.21849     0.07127    -0.23050     0.23672    -0.10113     0.09520
           2    -0.00409    -0.15667     0.20936    -0.15459    -0.06173    -0.24047
           3    -0.22038     0.08961     0.01366    -0.03620     0.24179     0.05643
           4     0.21849    -0.07127     0.23050    -0.23672     0.10113     0.09520
           5    -0.00409     0.15667    -0.20936     0.15459     0.06173    -0.24047
           6     0.22038     0.08961     0.01366    -0.03620     0.24179    -0.05643
           7    -0.21849    -0.07127    -0.23050    -0.23672    -0.10113    -0.09520
           8    -0.00409    -0.15667    -0.20936    -0.15459     0.06173    -0.24047
           9     0.22038    -0.08961     0.01366     0.03620     0.24179    -0.05643
          10    -0.21849     0.07127     0.23050     0.23672     0.10113    -0.09520
          11    -0.00409     0.15667     0.20936     0.15459    -0.06173    -0.24047
          12    -0.22038    -0.08961     0.01366     0.03620     0.24179     0.05643
          13    -0.21849    -0.07127     0.23050     0.23672    -0.10113     0.09520
          14     0.00409     0.15667    -0.20936    -0.15459    -0.06173    -0.24047
          15     0.22038    -0.08961    -0.01366    -0.03620     0.24179     0.05643
          16    -0.21849     0.07127    -0.23050    -0.23672     0.10113     0.09520
          17     0.00409    -0.15667     0.20936     0.15459     0.06173    -0.24047
          18    -0.22038    -0.08961    -0.01366    -0.03620     0.24179    -0.05643
          19     0.21849     0.07127     0.23050    -0.23672    -0.10113    -0.09520
          20     0.00409     0.15667     0.20936    -0.15459     0.06173    -0.24047
          21    -0.22038     0.08961    -0.01366     0.03620     0.24179    -0.05643
          22     0.21849    -0.07127    -0.23050     0.23672     0.10113    -0.09520
          23     0.00409    -0.15667    -0.20936     0.15459    -0.06173    -0.24047
          24     0.22038     0.08961    -0.01366     0.03620     0.24179     0.05643
          25    -0.03550    -0.03441     0.03555    -0.03184     0.04966    -0.05085
          26    -0.01022     0.07065    -0.03112     0.04305     0.03807     0.02020
          27     0.03102    -0.03285    -0.00502     0.02693    -0.02031    -0.03922
          28    -0.03550     0.03441    -0.03555     0.03184    -0.04966    -0.05085
          29    -0.01022    -0.07065     0.03112    -0.04305    -0.03807     0.02020
          30    -0.03102    -0.03285    -0.00502     0.02693    -0.02031     0.03922
          31     0.03550     0.03441     0.03555     0.03184     0.04966     0.05085
          32    -0.01022     0.07065     0.03112     0.04305    -0.03807     0.02020
          33    -0.03102     0.03285    -0.00502    -0.02693    -0.02031     0.03922
          34     0.03550    -0.03441    -0.03555    -0.03184    -0.04966     0.05085
          35    -0.01022    -0.07065    -0.03112    -0.04305     0.03807     0.02020
          36     0.03102     0.03285    -0.00502    -0.02693    -0.02031    -0.03922
          37     0.03550     0.03441    -0.03555    -0.03184     0.04966    -0.05085
          38     0.01022    -0.07065     0.03112     0.04305     0.03807     0.02020
          39    -0.03102     0.03285     0.00502     0.02693    -0.02031    -0.03922
          40     0.03550    -0.03441     0.03555     0.03184    -0.04966    -0.05085
          41     0.01022     0.07065    -0.03112    -0.04305    -0.03807     0.02020
          42     0.03102     0.03285     0.00502     0.02693    -0.02031     0.03922
          43    -0.03550    -0.03441    -0.03555     0.03184     0.04966     0.05085
          44     0.01022    -0.07065    -0.03112     0.04305    -0.03807     0.02020
          45     0.03102    -0.03285     0.00502    -0.02693    -0.02031     0.03922
          46    -0.03550     0.03441     0.03555    -0.03184    -0.04966     0.05085
          47     0.01022     0.07065     0.03112    -0.04305     0.03807     0.02020
          48    -0.03102    -0.03285     0.00502    -0.02693    -0.02031    -0.03922

                   37          38          39          40          41          42
 
 P.Frequency     1242.37     1247.04     1266.66     1287.13     3115.78     3138.55
 
           1    -0.10419    -0.13492     0.15599     0.24953    -0.19334    -0.19627
           2    -0.13712     0.15101    -0.11052    -0.08305    -0.18917    -0.19471
           3     0.15238    -0.10270    -0.12984    -0.10426    -0.19962    -0.19433
           4     0.10419    -0.13492     0.15599     0.24953    -0.19334    -0.19627
           5     0.13712     0.15101    -0.11052    -0.08305    -0.18917    -0.19471
           6     0.15238     0.10270     0.12984     0.10426     0.19962     0.19433
           7    -0.10419     0.13492     0.15599     0.24953     0.19334    -0.19627
           8     0.13712     0.15101     0.11052     0.08305    -0.18917     0.19471
           9     0.15238     0.10270    -0.12984    -0.10426     0.19962    -0.19433
          10     0.10419     0.13492     0.15599     0.24953     0.19334    -0.19627
          11    -0.13712     0.15101     0.11052     0.08305    -0.18917     0.19471
          12     0.15238    -0.10270     0.12984     0.10426    -0.19962     0.19433
          13     0.10419     0.13492    -0.15599     0.24953    -0.19334     0.19627
          14     0.13712    -0.15101     0.11052    -0.08305    -0.18917     0.19471
          15    -0.15238     0.10270     0.12984    -0.10426    -0.19962     0.19433
          16    -0.10419     0.13492    -0.15599     0.24953    -0.19334     0.19627
          17    -0.13712    -0.15101     0.11052    -0.08305    -0.18917     0.19471
          18    -0.15238    -0.10270    -0.12984     0.10426     0.19962    -0.19433
          19     0.10419    -0.13492    -0.15599     0.24953     0.19334     0.19627
          20    -0.13712    -0.15101    -0.11052     0.08305    -0.18917    -0.19471
          21    -0.15238    -0.10270     0.12984    -0.10426     0.19962     0.19433
          22    -0.10419    -0.13492    -0.15599     0.24953     0.19334     0.19627
          23     0.13712    -0.15101    -0.11052     0.08305    -0.18917    -0.19471
          24    -0.15238     0.10270    -0.12984     0.10426    -0.19962    -0.19433
          25    -0.00296     0.00403    -0.07698    -0.02096     0.01815     0.01734
          26     0.00203    -0.07791    -0.00208     0.03603     0.01589     0.01623
          27    -0.07722    -0.00086     0.00085     0.04425     0.01852     0.01617
          28     0.00296     0.00403    -0.07698    -0.02096     0.01815     0.01734
          29    -0.00203    -0.07791    -0.00208     0.03603     0.01589     0.01623
          30    -0.07722     0.00086    -0.00085    -0.04425    -0.01852    -0.01617
          31    -0.00296    -0.00403    -0.07698    -0.02096    -0.01815     0.01734
          32    -0.00203    -0.07791     0.00208    -0.03603     0.01589    -0.01623
          33    -0.07722     0.00086     0.00085     0.04425    -0.01852     0.01617
          34     0.00296    -0.00403    -0.07698    -0.02096    -0.01815     0.01734
          35     0.00203    -0.07791     0.00208    -0.03603     0.01589    -0.01623
          36    -0.07722    -0.00086    -0.00085    -0.04425     0.01852    -0.01617
          37     0.00296    -0.00403     0.07698    -0.02096     0.01815    -0.01734
          38    -0.00203     0.07791     0.00208     0.03603     0.01589    -0.01623
          39     0.07722     0.00086    -0.00085     0.04425     0.01852    -0.01617
          40    -0.00296    -0.00403     0.07698    -0.02096     0.01815    -0.01734
          41     0.00203     0.07791     0.00208     0.03603     0.01589    -0.01623
          42     0.07722    -0.00086     0.00085    -0.04425    -0.01852     0.01617
          43     0.00296     0.00403     0.07698    -0.02096    -0.01815    -0.01734
          44     0.00203     0.07791    -0.00208    -0.03603     0.01589     0.01623
          45     0.07722    -0.00086    -0.00085     0.04425    -0.01852    -0.01617
          46    -0.00296     0.00403     0.07698    -0.02096    -0.01815    -0.01734
          47    -0.00203     0.07791    -0.00208    -0.03603     0.01589     0.01623
          48     0.07722     0.00086     0.00085    -0.04425     0.01852     0.01617

                   43          44          45          46          47          48
 
 P.Frequency     3151.23     3152.39     3154.97     3161.16     3169.24     3191.45
 
           1     0.19257    -0.19145     0.19006    -0.19349     0.19266     0.19848
           2     0.19525    -0.19582     0.19504    -0.19369     0.19371     0.19179
           3     0.19321    -0.19538     0.19716    -0.19421     0.19418     0.19018
           4    -0.19257     0.19145     0.19006     0.19349    -0.19266     0.19848
           5    -0.19525     0.19582     0.19504     0.19369    -0.19371     0.19179
           6     0.19321    -0.19538    -0.19716    -0.19421     0.19418    -0.19018
           7    -0.19257    -0.19145    -0.19006    -0.19349    -0.19266     0.19848
           8     0.19525     0.19582     0.19504     0.19369     0.19371    -0.19179
           9    -0.19321    -0.19538    -0.19716    -0.19421    -0.19418     0.19018
          10     0.19257     0.19145    -0.19006     0.19349     0.19266     0.19848
          11    -0.19525    -0.19582     0.19504    -0.19369    -0.19371    -0.19179
          12    -0.19321    -0.19538     0.19716    -0.19421    -0.19418    -0.19018
          13     0.19257     0.19145    -0.19006    -0.19349    -0.19266     0.19848
          14     0.19525     0.19582    -0.19504    -0.19369    -0.19371     0.19179
          15     0.19321     0.19538    -0.19716    -0.19421    -0.19418     0.19018
          16    -0.19257    -0.19145    -0.19006     0.19349     0.19266     0.19848
          17    -0.19525    -0.19582    -0.19504     0.19369     0.19371     0.19179
          18     0.19321     0.19538     0.19716    -0.19421    -0.19418    -0.19018
          19    -0.19257     0.19145     0.19006    -0.19349     0.19266     0.19848
          20     0.19525    -0.19582    -0.19504     0.19369    -0.19371    -0.19179
          21    -0.19321     0.19538     0.19716    -0.19421     0.19418     0.19018
          22     0.19257    -0.19145     0.19006     0.19349    -0.19266     0.19848
          23    -0.19525     0.19582    -0.19504    -0.19369     0.19371    -0.19179
          24    -0.19321     0.19538    -0.19716    -0.19421     0.19418    -0.19018
          25    -0.01762     0.01664    -0.01656     0.01859    -0.01770    -0.01667
          26    -0.01815     0.01730    -0.01838     0.01850    -0.01811    -0.01874
          27    -0.01803     0.01834    -0.01764     0.01631    -0.01842    -0.01877
          28     0.01762    -0.01664    -0.01656    -0.01859     0.01770    -0.01667
          29     0.01815    -0.01730    -0.01838    -0.01850     0.01811    -0.01874
          30    -0.01803     0.01834     0.01764     0.01631    -0.01842     0.01877
          31     0.01762     0.01664     0.01656     0.01859     0.01770    -0.01667
          32    -0.01815    -0.01730    -0.01838    -0.01850    -0.01811     0.01874
          33     0.01803     0.01834     0.01764     0.01631     0.01842    -0.01877
          34    -0.01762    -0.01664     0.01656    -0.01859    -0.01770    -0.01667
          35     0.01815     0.01730    -0.01838     0.01850     0.01811     0.01874
          36     0.01803     0.01834    -0.01764     0.01631     0.01842     0.01877
          37    -0.01762    -0.01664     0.01656     0.01859     0.01770    -0.01667
          38    -0.01815    -0.01730     0.01838     0.01850     0.01811    -0.01874
          39    -0.01803    -0.01834     0.01764     0.01631     0.01842    -0.01877
          40     0.01762     0.01664     0.01656    -0.01859    -0.01770    -0.01667
          41     0.01815     0.01730     0.01838    -0.01850    -0.01811    -0.01874
          42    -0.01803    -0.01834    -0.01764     0.01631     0.01842     0.01877
          43     0.01762    -0.01664    -0.01656     0.01859    -0.01770    -0.01667
          44    -0.01815     0.01730     0.01838    -0.01850     0.01811     0.01874
          45     0.01803    -0.01834    -0.01764     0.01631    -0.01842    -0.01877
          46    -0.01762     0.01664    -0.01656    -0.01859     0.01770    -0.01667
          47     0.01815    -0.01730     0.01838     0.01850    -0.01811     0.01874
          48     0.01803    -0.01834     0.01764     0.01631    -0.01842     0.01877
 vib:animation  F

 Task  times  cpu:        0.0s     wall:        0.0s
 Summary of allocated global arrays
-----------------------------------
  No active global arrays



                         GA Statistics for process    0
                         ------------------------------

       create   destroy   get      put      acc     scatter   gather  read&inc
calls:    0        0        0        0        0        0        0        0     
number of processes/call 0.00e+00 0.00e+00 0.00e+00 0.00e+00 0.00e+00
bytes total:             0.00e+00 0.00e+00 0.00e+00 0.00e+00 0.00e+00 0.00e+00
bytes remote:            0.00e+00 0.00e+00 0.00e+00 0.00e+00 0.00e+00 0.00e+00
Max memory consumed for GA by this process: 0 bytes
MA_summarize_allocated_blocks: starting scan ...
MA_summarize_allocated_blocks: scan completed: 0 heap blocks, 0 stack blocks
MA usage statistics:

	allocation statistics:
					      heap	     stack
					      ----	     -----
	current number of blocks	         0	         0
	maximum number of blocks	         1	         6
	current total bytes		         0	         0
	maximum total bytes		     80120	    813560
	maximum total K-bytes		        81	       814
	maximum total M-bytes		         1	         1


                                NWChem Input Module
                                -------------------





                                     CITATION
                                     --------
                Please cite the following reference when publishing
                           results obtained with NWChem:

                 M. Valiev, E.J. Bylaska, N. Govind, K. Kowalski,
              T.P. Straatsma, H.J.J. van Dam, D. Wang, J. Nieplocha,
                        E. Apra, T.L. Windus, W.A. de Jong
                 "NWChem: a comprehensive and scalable open-source
                  solution for large scale molecular simulations"
                      Comput. Phys. Commun. 181, 1477 (2010)
                           doi:10.1016/j.cpc.2010.04.018

                                      AUTHORS
                                      -------
          E. Apra, E. J. Bylaska, W. A. de Jong, N. Govind, K. Kowalski,
       T. P. Straatsma, M. Valiev, H. J. J. van Dam, D. Wang, T. L. Windus,
        J. Hammond, J. Autschbach, K. Bhaskaran-Nair, J. Brabec, K. Lopata,
       S. A. Fischer, S. Krishnamoorthy, W. Ma, M. Klemm, O. Villa, Y. Chen,
    V. Anisimov, F. Aquino, S. Hirata, M. T. Hackler, T. Risthaus, M. Malagoli,
       A. Marenich, A. Otero-de-la-Roza, J. Mullin, P. Nichols, R. Peverati,
     J. Pittner, Y. Zhao, P.-D. Fan, A. Fonari, M. Williamson, R. J. Harrison,
       J. R. Rehr, M. Dupuis, D. Silverstein, D. M. A. Smith, J. Nieplocha,
        V. Tipparaju, M. Krishnan, B. E. Van Kuiken, A. Vazquez-Mayagoitia,
        L. Jensen, M. Swart, Q. Wu, T. Van Voorhis, A. A. Auer, M. Nooijen,
      L. D. Crosby, E. Brown, G. Cisneros, G. I. Fann, H. Fruchtl, J. Garza,
        K. Hirao, R. A. Kendall, J. A. Nichols, K. Tsemekhman, K. Wolinski,
     J. Anchell, D. E. Bernholdt, P. Borowski, T. Clark, D. Clerc, H. Dachsel,
   M. J. O. Deegan, K. Dyall, D. Elwood, E. Glendening, M. Gutowski, A. C. Hess,
         J. Jaffe, B. G. Johnson, J. Ju, R. Kobayashi, R. Kutteh, Z. Lin,
   R. Littlefield, X. Long, B. Meng, T. Nakajima, S. Niu, L. Pollack, M. Rosing,
   K. Glaesemann, G. Sandrone, M. Stave, H. Taylor, G. Thomas, J. H. van Lenthe,
                               A. T. Wong, Z. Zhang.

 Total times  cpu:        0.2s     wall:        0.2s
