 argument  1 = cubane.nw
                                         
                                         


              Northwest Computational Chemistry Package (NWChem) 6.3
              ------------------------------------------------------


                    Environmental Molecular Sciences Laboratory
                       Pacific Northwest National Laboratory
                                Richland, WA 99352

                              Copyright (c) 1994-2012
                       Pacific Northwest National Laboratory
                            Battelle Memorial Institute

             NWChem is an open-source computational chemistry package
                        distributed under the terms of the
                      Educational Community License (ECL) 2.0
             A copy of the license is included with this distribution
                              in the LICENSE.TXT file

                                  ACKNOWLEDGMENT
                                  --------------

            This software and its documentation were developed at the
            EMSL at Pacific Northwest National Laboratory, a multiprogram
            national laboratory, operated for the U.S. Department of Energy
            by Battelle under Contract Number DE-AC05-76RL01830. Support
            for this work was provided by the Department of Energy Office
            of Biological and Environmental Research, Office of Basic
            Energy Sciences, and the Office of Advanced Scientific Computing.


           Job information
           ---------------

    hostname        = kbob-G41MT-S2
    program         = nwchem
    date            = Mon Jun 17 01:35:56 2013

    compiled        = Ср._июня_12_16:23:50_2013
    source          = /opt/nwchem-6.3-src.2013-05-28
    nwchem branch   = 6.3
    nwchem revision = 24277
    ga revision     = 10379
    input           = cubane.nw
    prefix          = cubane.
    data base       = ./cubane.db
    status          = startup
    nproc           =        2
    time left       =     -1s



           Memory information
           ------------------

    heap     =   63236417 doubles =    482.5 Mbytes
    stack    =   63236417 doubles =    482.5 Mbytes
    global   =  126472832 doubles =    964.9 Mbytes (distinct from heap & stack)
    total    =  252945666 doubles =   1929.8 Mbytes
    verify   = yes
    hardfail = no 


           Directory information
           ---------------------

  0 permanent = .
  0 scratch   = .




                                NWChem Input Module
                                -------------------


                     cubane MP2/cc-pVTZ geometry optimization
                     ----------------------------------------

 Scaling coordinates for geometry "geometry" by  1.889725989
 (inverse scale =  0.529177249)

 Turning off AUTOSYM since
 SYMMETRY directive was detected!


          ------
          auto-z
          ------


                             Geometry "geometry" -> ""
                             -------------------------

 Output coordinates in angstroms (scale by  1.889725989 to convert to a.u.)

  No.       Tag          Charge          X              Y              Z
 ---- ---------------- ---------- -------------- -------------- --------------
    1 H                    1.0000     1.41063149     1.41063149     1.41063149
    2 H                    1.0000    -1.41063149    -1.41063149     1.41063149
    3 H                    1.0000    -1.41063149     1.41063149    -1.41063149
    4 H                    1.0000     1.41063149    -1.41063149    -1.41063149
    5 H                    1.0000     1.41063149     1.41063149    -1.41063149
    6 H                    1.0000    -1.41063149    -1.41063149    -1.41063149
    7 H                    1.0000     1.41063149    -1.41063149     1.41063149
    8 H                    1.0000    -1.41063149     1.41063149     1.41063149
    9 C                    6.0000     0.78371973     0.78371973     0.78371973
   10 C                    6.0000    -0.78371973    -0.78371973     0.78371973
   11 C                    6.0000    -0.78371973     0.78371973    -0.78371973
   12 C                    6.0000     0.78371973    -0.78371973    -0.78371973
   13 C                    6.0000     0.78371973     0.78371973    -0.78371973
   14 C                    6.0000    -0.78371973    -0.78371973    -0.78371973
   15 C                    6.0000     0.78371973    -0.78371973     0.78371973
   16 C                    6.0000    -0.78371973     0.78371973     0.78371973

      Atomic Mass 
      ----------- 

      H                  1.007825
      C                 12.000000


 Effective nuclear repulsion energy (a.u.)     367.6600184792

            Nuclear Dipole moment (a.u.) 
            ----------------------------
        X                 Y               Z
 ---------------- ---------------- ----------------
     0.0000000000     0.0000000000     0.0000000000

      Symmetry information
      --------------------

 Group name              Oh       
 Group number             44
 Group order              48
 No. of unique centers     2

      Symmetry unique atoms

     1    9



                                Z-matrix (autoz)
                                -------- 

 Units are Angstrom for bonds and degrees for angles

      Type          Name      I     J     K     L     M      Value
      ----------- --------  ----- ----- ----- ----- ----- ----------
    1 Stretch                  1     9                       1.08584
    2 Stretch                  2    10                       1.08584
    3 Stretch                  3    11                       1.08584
    4 Stretch                  4    12                       1.08584
    5 Stretch                  5    13                       1.08584
    6 Stretch                  6    14                       1.08584
    7 Stretch                  7    15                       1.08584
    8 Stretch                  8    16                       1.08584
    9 Stretch                  9    13                       1.56744
   10 Stretch                  9    15                       1.56744
   11 Stretch                  9    16                       1.56744
   12 Stretch                 10    14                       1.56744
   13 Stretch                 10    15                       1.56744
   14 Stretch                 10    16                       1.56744
   15 Stretch                 11    13                       1.56744
   16 Stretch                 11    14                       1.56744
   17 Stretch                 11    16                       1.56744
   18 Stretch                 12    13                       1.56744
   19 Stretch                 12    14                       1.56744
   20 Stretch                 12    15                       1.56744
   21 Bend                     1     9    13               125.26439
   22 Bend                     1     9    15               125.26439
   23 Bend                     1     9    16               125.26439
   24 Bend                     2    10    14               125.26439
   25 Bend                     2    10    15               125.26439
   26 Bend                     2    10    16               125.26439
   27 Bend                     3    11    13               125.26439
   28 Bend                     3    11    14               125.26439
   29 Bend                     3    11    16               125.26439
   30 Bend                     4    12    13               125.26439
   31 Bend                     4    12    14               125.26439
   32 Bend                     4    12    15               125.26439
   33 Bend                     5    13     9               125.26439
   34 Bend                     5    13    11               125.26439
   35 Bend                     5    13    12               125.26439
   36 Bend                     6    14    10               125.26439
   37 Bend                     6    14    11               125.26439
   38 Bend                     6    14    12               125.26439
   39 Bend                     7    15     9               125.26439
   40 Bend                     7    15    10               125.26439
   41 Bend                     7    15    12               125.26439
   42 Bend                     8    16     9               125.26439
   43 Bend                     8    16    10               125.26439
   44 Bend                     8    16    11               125.26439
   45 Bend                     9    13    11                90.00000
   46 Bend                     9    13    12                90.00000
   47 Bend                     9    15    10                90.00000
   48 Bend                     9    15    12                90.00000
   49 Bend                     9    16    10                90.00000
   50 Bend                     9    16    11                90.00000
   51 Bend                    10    14    11                90.00000
   52 Bend                    10    14    12                90.00000
   53 Bend                    10    15    12                90.00000
   54 Bend                    10    16    11                90.00000
   55 Bend                    11    13    12                90.00000
   56 Bend                    11    14    12                90.00000
   57 Bend                    13     9    15                90.00000
   58 Bend                    13     9    16                90.00000
   59 Bend                    13    11    14                90.00000
   60 Bend                    13    11    16                90.00000
   61 Bend                    13    12    14                90.00000
   62 Bend                    13    12    15                90.00000
   63 Bend                    14    10    15                90.00000
   64 Bend                    14    10    16                90.00000
   65 Bend                    14    11    16                90.00000
   66 Bend                    14    12    15                90.00000
   67 Bend                    15     9    16                90.00000
   68 Bend                    15    10    16                90.00000
   69 Torsion                  1     9    13     5           0.00000
   70 Torsion                  1     9    13    11        -135.00000
   71 Torsion                  1     9    13    12         135.00000
   72 Torsion                  1     9    15     7           0.00000
   73 Torsion                  1     9    15    10         135.00000
   74 Torsion                  1     9    15    12        -135.00000
   75 Torsion                  1     9    16     8           0.00000
   76 Torsion                  1     9    16    10        -135.00000
   77 Torsion                  1     9    16    11         135.00000
   78 Torsion                  2    10    14     6           0.00000
   79 Torsion                  2    10    14    11         135.00000
   80 Torsion                  2    10    14    12        -135.00000
   81 Torsion                  2    10    15     7           0.00000
   82 Torsion                  2    10    15     9        -135.00000
   83 Torsion                  2    10    15    12         135.00000
   84 Torsion                  2    10    16     8           0.00000
   85 Torsion                  2    10    16     9         135.00000
   86 Torsion                  2    10    16    11        -135.00000
   87 Torsion                  3    11    13     5           0.00000
   88 Torsion                  3    11    13     9         135.00000
   89 Torsion                  3    11    13    12        -135.00000
   90 Torsion                  3    11    14     6           0.00000
   91 Torsion                  3    11    14    10        -135.00000
   92 Torsion                  3    11    14    12         135.00000
   93 Torsion                  3    11    16     8           0.00000
   94 Torsion                  3    11    16     9        -135.00000
   95 Torsion                  3    11    16    10         135.00000
   96 Torsion                  4    12    13     5           0.00000
   97 Torsion                  4    12    13     9        -135.00000
   98 Torsion                  4    12    13    11         135.00000
   99 Torsion                  4    12    14     6           0.00000
  100 Torsion                  4    12    14    10         135.00000
  101 Torsion                  4    12    14    11        -135.00000
  102 Torsion                  4    12    15     7           0.00000
  103 Torsion                  4    12    15     9         135.00000
  104 Torsion                  4    12    15    10        -135.00000
  105 Torsion                  5    13     9    15        -135.00000
  106 Torsion                  5    13     9    16         135.00000
  107 Torsion                  5    13    11    14         135.00000
  108 Torsion                  5    13    11    16        -135.00000
  109 Torsion                  5    13    12    14        -135.00000
  110 Torsion                  5    13    12    15         135.00000
  111 Torsion                  6    14    10    15         135.00000
  112 Torsion                  6    14    10    16        -135.00000
  113 Torsion                  6    14    11    13        -135.00000
  114 Torsion                  6    14    11    16         135.00000
  115 Torsion                  6    14    12    13         135.00000
  116 Torsion                  6    14    12    15        -135.00000
  117 Torsion                  7    15     9    13         135.00000
  118 Torsion                  7    15     9    16        -135.00000
  119 Torsion                  7    15    10    14        -135.00000
  120 Torsion                  7    15    10    16         135.00000
  121 Torsion                  7    15    12    13        -135.00000
  122 Torsion                  7    15    12    14         135.00000
  123 Torsion                  8    16     9    13        -135.00000
  124 Torsion                  8    16     9    15         135.00000
  125 Torsion                  8    16    10    14         135.00000
  126 Torsion                  8    16    10    15        -135.00000
  127 Torsion                  8    16    11    13         135.00000
  128 Torsion                  8    16    11    14        -135.00000
  129 Torsion                  9    13    11    14         -90.00000
  130 Torsion                  9    13    11    16           0.00000
  131 Torsion                  9    13    12    14          90.00000
  132 Torsion                  9    13    12    15           0.00000
  133 Torsion                  9    15    10    14          90.00000
  134 Torsion                  9    15    10    16           0.00000
  135 Torsion                  9    15    12    13           0.00000
  136 Torsion                  9    15    12    14         -90.00000
  137 Torsion                  9    16    10    14         -90.00000
  138 Torsion                  9    16    10    15           0.00000
  139 Torsion                  9    16    11    13           0.00000
  140 Torsion                  9    16    11    14          90.00000
  141 Torsion                 10    14    11    13          90.00000
  142 Torsion                 10    14    11    16           0.00000
  143 Torsion                 10    14    12    13         -90.00000
  144 Torsion                 10    14    12    15           0.00000
  145 Torsion                 10    15     9    13         -90.00000
  146 Torsion                 10    15     9    16           0.00000
  147 Torsion                 10    15    12    13          90.00000
  148 Torsion                 10    15    12    14           0.00000
  149 Torsion                 10    16     9    13          90.00000
  150 Torsion                 10    16     9    15           0.00000
  151 Torsion                 10    16    11    13         -90.00000
  152 Torsion                 10    16    11    14           0.00000
  153 Torsion                 11    13     9    15          90.00000
  154 Torsion                 11    13     9    16           0.00000
  155 Torsion                 11    13    12    14           0.00000
  156 Torsion                 11    13    12    15         -90.00000
  157 Torsion                 11    14    10    15         -90.00000
  158 Torsion                 11    14    10    16           0.00000
  159 Torsion                 11    14    12    13           0.00000
  160 Torsion                 11    14    12    15          90.00000
  161 Torsion                 11    16     9    13           0.00000
  162 Torsion                 11    16     9    15         -90.00000
  163 Torsion                 11    16    10    14           0.00000
  164 Torsion                 11    16    10    15          90.00000
  165 Torsion                 12    13     9    15           0.00000
  166 Torsion                 12    13     9    16         -90.00000
  167 Torsion                 12    13    11    14           0.00000
  168 Torsion                 12    13    11    16          90.00000
  169 Torsion                 12    14    10    15           0.00000
  170 Torsion                 12    14    10    16          90.00000
  171 Torsion                 12    14    11    13           0.00000
  172 Torsion                 12    14    11    16         -90.00000
  173 Torsion                 12    15     9    13           0.00000
  174 Torsion                 12    15     9    16          90.00000
  175 Torsion                 12    15    10    14           0.00000
  176 Torsion                 12    15    10    16         -90.00000


            XYZ format geometry
            -------------------
    16
 geometry
 H                     1.41063149     1.41063149     1.41063149
 H                    -1.41063149    -1.41063149     1.41063149
 H                    -1.41063149     1.41063149    -1.41063149
 H                     1.41063149    -1.41063149    -1.41063149
 H                     1.41063149     1.41063149    -1.41063149
 H                    -1.41063149    -1.41063149    -1.41063149
 H                     1.41063149    -1.41063149     1.41063149
 H                    -1.41063149     1.41063149     1.41063149
 C                     0.78371973     0.78371973     0.78371973
 C                    -0.78371973    -0.78371973     0.78371973
 C                    -0.78371973     0.78371973    -0.78371973
 C                     0.78371973    -0.78371973    -0.78371973
 C                     0.78371973     0.78371973    -0.78371973
 C                    -0.78371973    -0.78371973    -0.78371973
 C                     0.78371973    -0.78371973     0.78371973
 C                    -0.78371973     0.78371973     0.78371973

 ==============================================================================
                                internuclear distances
 ------------------------------------------------------------------------------
       center one      |      center two      | atomic units |  angstroms
 ------------------------------------------------------------------------------
    9 C                |   1 H                |     2.05195  |     1.08584
   10 C                |   2 H                |     2.05195  |     1.08584
   11 C                |   3 H                |     2.05195  |     1.08584
   12 C                |   4 H                |     2.05195  |     1.08584
   13 C                |   5 H                |     2.05195  |     1.08584
   13 C                |   9 C                |     2.96203  |     1.56744
   13 C                |  11 C                |     2.96203  |     1.56744
   13 C                |  12 C                |     2.96203  |     1.56744
   14 C                |   6 H                |     2.05195  |     1.08584
   14 C                |  10 C                |     2.96203  |     1.56744
   14 C                |  11 C                |     2.96203  |     1.56744
   14 C                |  12 C                |     2.96203  |     1.56744
   15 C                |   7 H                |     2.05195  |     1.08584
   15 C                |   9 C                |     2.96203  |     1.56744
   15 C                |  10 C                |     2.96203  |     1.56744
   15 C                |  12 C                |     2.96203  |     1.56744
   16 C                |   8 H                |     2.05195  |     1.08584
   16 C                |   9 C                |     2.96203  |     1.56744
   16 C                |  10 C                |     2.96203  |     1.56744
   16 C                |  11 C                |     2.96203  |     1.56744
 ------------------------------------------------------------------------------
                         number of included internuclear distances:         20
 ==============================================================================



 ==============================================================================
                                 internuclear angles
 ------------------------------------------------------------------------------
        center 1       |       center 2       |       center 3       |  degrees
 ------------------------------------------------------------------------------
    1 H                |   9 C                |  13 C                |   125.26
    1 H                |   9 C                |  15 C                |   125.26
    1 H                |   9 C                |  16 C                |   125.26
   13 C                |   9 C                |  15 C                |    90.00
   13 C                |   9 C                |  16 C                |    90.00
   15 C                |   9 C                |  16 C                |    90.00
    2 H                |  10 C                |  14 C                |   125.26
    2 H                |  10 C                |  15 C                |   125.26
    2 H                |  10 C                |  16 C                |   125.26
   14 C                |  10 C                |  15 C                |    90.00
   14 C                |  10 C                |  16 C                |    90.00
   15 C                |  10 C                |  16 C                |    90.00
    3 H                |  11 C                |  13 C                |   125.26
    3 H                |  11 C                |  14 C                |   125.26
    3 H                |  11 C                |  16 C                |   125.26
   13 C                |  11 C                |  14 C                |    90.00
   13 C                |  11 C                |  16 C                |    90.00
   14 C                |  11 C                |  16 C                |    90.00
    4 H                |  12 C                |  13 C                |   125.26
    4 H                |  12 C                |  14 C                |   125.26
    4 H                |  12 C                |  15 C                |   125.26
   13 C                |  12 C                |  14 C                |    90.00
   13 C                |  12 C                |  15 C                |    90.00
   14 C                |  12 C                |  15 C                |    90.00
    5 H                |  13 C                |   9 C                |   125.26
    5 H                |  13 C                |  11 C                |   125.26
    5 H                |  13 C                |  12 C                |   125.26
    9 C                |  13 C                |  11 C                |    90.00
    9 C                |  13 C                |  12 C                |    90.00
   11 C                |  13 C                |  12 C                |    90.00
    6 H                |  14 C                |  10 C                |   125.26
    6 H                |  14 C                |  11 C                |   125.26
    6 H                |  14 C                |  12 C                |   125.26
   10 C                |  14 C                |  11 C                |    90.00
   10 C                |  14 C                |  12 C                |    90.00
   11 C                |  14 C                |  12 C                |    90.00
    7 H                |  15 C                |   9 C                |   125.26
    7 H                |  15 C                |  10 C                |   125.26
    7 H                |  15 C                |  12 C                |   125.26
    9 C                |  15 C                |  10 C                |    90.00
    9 C                |  15 C                |  12 C                |    90.00
   10 C                |  15 C                |  12 C                |    90.00
    8 H                |  16 C                |   9 C                |   125.26
    8 H                |  16 C                |  10 C                |   125.26
    8 H                |  16 C                |  11 C                |   125.26
    9 C                |  16 C                |  10 C                |    90.00
    9 C                |  16 C                |  11 C                |    90.00
   10 C                |  16 C                |  11 C                |    90.00
 ------------------------------------------------------------------------------
                            number of included internuclear angles:         48
 ==============================================================================



  library name resolved from: environment
  library file name is: </opt/nwchem-6.3-src.2013-05-28/src/basis/libraries/>
  
                      Basis "ao basis" -> "" (spherical)
                      -----
  H (Hydrogen)
  ------------
            Exponent  Coefficients 
       -------------- ---------------------------------------------------------
  1 S  3.38700000E+01  0.006068
  1 S  5.09500000E+00  0.045308
  1 S  1.15900000E+00  0.202822

  2 S  3.25800000E-01  1.000000

  3 S  1.02700000E-01  1.000000

  4 P  1.40700000E+00  1.000000

  5 P  3.88000000E-01  1.000000

  6 D  1.05700000E+00  1.000000

  C (Carbon)
  ----------
            Exponent  Coefficients 
       -------------- ---------------------------------------------------------
  1 S  8.23600000E+03  0.000531
  1 S  1.23500000E+03  0.004108
  1 S  2.80800000E+02  0.021087
  1 S  7.92700000E+01  0.081853
  1 S  2.55900000E+01  0.234817
  1 S  8.99700000E+00  0.434401
  1 S  3.31900000E+00  0.346129
  1 S  3.64300000E-01 -0.008983

  2 S  8.23600000E+03 -0.000113
  2 S  1.23500000E+03 -0.000878
  2 S  2.80800000E+02 -0.004540
  2 S  7.92700000E+01 -0.018133
  2 S  2.55900000E+01 -0.055760
  2 S  8.99700000E+00 -0.126895
  2 S  3.31900000E+00 -0.170352
  2 S  3.64300000E-01  0.598684

  3 S  9.05900000E-01  1.000000

  4 S  1.28500000E-01  1.000000

  5 P  1.87100000E+01  0.014031
  5 P  4.13300000E+00  0.086866
  5 P  1.20000000E+00  0.290216

  6 P  3.82700000E-01  1.000000

  7 P  1.20900000E-01  1.000000

  8 D  1.09700000E+00  1.000000

  9 D  3.18000000E-01  1.000000

 10 F  7.61000000E-01  1.000000



 Summary of "ao basis" -> "" (spherical)
 ------------------------------------------------------------------------------
       Tag                 Description            Shells   Functions and Types
 ---------------- ------------------------------  ------  ---------------------
 H                          cc-pVTZ                  6       14   3s2p1d
 C                          cc-pVTZ                 10       30   4s3p2d1f




                           NWChem Geometry Optimization
                           ----------------------------




                     cubane MP2/cc-pVTZ geometry optimization


 maximum gradient threshold         (gmax) =   0.000450
 rms gradient threshold             (grms) =   0.000300
 maximum cartesian step threshold   (xmax) =   0.001800
 rms cartesian step threshold       (xrms) =   0.001200
 fixed trust radius                (trust) =   0.300000
 maximum step size to saddle      (sadstp) =   0.100000
 energy precision                  (eprec) =   1.0D-07
 maximum number of steps          (nptopt) =   20
 initial hessian option           (inhess) =    0
 line search option               (linopt) =    1
 hessian update option            (modupd) =    1
 saddle point option              (modsad) =    0
 initial eigen-mode to follow     (moddir) =    0
 initial variable to follow       (vardir) =    0
 follow first negative mode     (firstneg) =    T
 apply conjugacy                    (opcg) =    F
 source of zmatrix                         =   autoz   


          -------------------
          Energy Minimization
          -------------------


 Names of Z-matrix variables 
    1              2              3              4              5         
    6              7              8              9             10         
   11             12             13             14             15         
   16             17             18             19             20         
   21             22             23             24             25         
   26             27             28             29             30         
   31             32             33             34             35         
   36             37             38             39             40         
   41             42             43             44             45         
   46             47             48             49             50         
   51             52             53             54             55         
   56             57             58             59             60         
   61             62             63             64             65         
   66             67             68             69             70         
   71             72             73             74             75         
   76             77             78             79             80         
   81             82             83             84             85         
   86             87             88             89             90         
   91             92             93             94             95         
   96             97             98             99            100         
  101            102            103            104            105         
  106            107            108            109            110         
  111            112            113            114            115         
  116            117            118            119            120         
  121            122            123            124            125         
  126            127            128            129            130         
  131            132            133            134            135         
  136            137            138            139            140         
  141            142            143            144            145         
  146            147            148            149            150         
  151            152            153            154            155         
  156            157            158            159            160         
  161            162            163            164            165         
  166            167            168            169            170         
  171            172            173            174            175         
  176         

 Variables with the same non-blank name are constrained to be equal


 Using diagonal initial Hessian 
 Scaling for Hessian diagonals: bonds = 1.00  angles = 0.25  torsions = 0.10

          --------
          Step   0
          --------


                         Geometry "geometry" -> "geometry"
                         ---------------------------------

 Output coordinates in angstroms (scale by  1.889725989 to convert to a.u.)

  No.       Tag          Charge          X              Y              Z
 ---- ---------------- ---------- -------------- -------------- --------------
    1 H                    1.0000     1.41063149     1.41063149     1.41063149
    2 H                    1.0000    -1.41063149    -1.41063149     1.41063149
    3 H                    1.0000    -1.41063149     1.41063149    -1.41063149
    4 H                    1.0000     1.41063149    -1.41063149    -1.41063149
    5 H                    1.0000     1.41063149     1.41063149    -1.41063149
    6 H                    1.0000    -1.41063149    -1.41063149    -1.41063149
    7 H                    1.0000     1.41063149    -1.41063149     1.41063149
    8 H                    1.0000    -1.41063149     1.41063149     1.41063149
    9 C                    6.0000     0.78371973     0.78371973     0.78371973
   10 C                    6.0000    -0.78371973    -0.78371973     0.78371973
   11 C                    6.0000    -0.78371973     0.78371973    -0.78371973
   12 C                    6.0000     0.78371973    -0.78371973    -0.78371973
   13 C                    6.0000     0.78371973     0.78371973    -0.78371973
   14 C                    6.0000    -0.78371973    -0.78371973    -0.78371973
   15 C                    6.0000     0.78371973    -0.78371973     0.78371973
   16 C                    6.0000    -0.78371973     0.78371973     0.78371973

      Atomic Mass 
      ----------- 

      H                  1.007825
      C                 12.000000


 Effective nuclear repulsion energy (a.u.)     367.6600184792

            Nuclear Dipole moment (a.u.) 
            ----------------------------
        X                 Y               Z
 ---------------- ---------------- ----------------
     0.0000000000     0.0000000000     0.0000000000

      Symmetry information
      --------------------

 Group name              Oh       
 Group number             44
 Group order              48
 No. of unique centers     2

      Symmetry unique atoms

     1    9

                                 NWChem SCF Module
                                 -----------------


                     cubane MP2/cc-pVTZ geometry optimization



  ao basis        = "ao basis"
  functions       =   352
  atoms           =    16
  closed shells   =    28
  open shells     =     0
  charge          =   0.00
  wavefunction    = RHF 
  input vectors   = atomic
  output vectors  = ./cubane.movecs
  use symmetry    = T
  symmetry adapt  = T


 Summary of "ao basis" -> "ao basis" (spherical)
 ------------------------------------------------------------------------------
       Tag                 Description            Shells   Functions and Types
 ---------------- ------------------------------  ------  ---------------------
 H                          cc-pVTZ                  6       14   3s2p1d
 C                          cc-pVTZ                 10       30   4s3p2d1f


      Symmetry analysis of basis
      --------------------------

        a1g        17
        a1u         1
        a2g         1
        a2u        17
        eg         26
        eu         26
        t1g        42
        t1u        90
        t2g        90
        t2u        42


 Forming initial guess at       2.1s


 !! The overlap matrix has   1 vectors deemed linearly dependent with
    eigenvalues:
 8.72D-06


      Superposition of Atomic Density Guess
      -------------------------------------

 Sum of atomic energies:        -305.36244765

      Non-variational initial energy
      ------------------------------

 Total energy =    -311.909944
 1-e energy   =   -1138.221310
 2-e energy   =     458.651347
 HOMO         =      -0.294379
 LUMO         =       0.041449


      Symmetry analysis of molecular orbitals - initial
      -------------------------------------------------

  Numbering of irreducible representations: 

     1 a1g         2 a1u         3 a2g         4 a2u         5 eg      
     6 eu          7 t1g         8 t1u         9 t2g        10 t2u     

  Orbital symmetries:

     1 a1g         2 t1u         3 t1u         4 t1u         5 t2g     
     6 t2g         7 t2g         8 a2u         9 a1g        10 t1u     
    11 t1u        12 t1u        13 t2g        14 t2g        15 t2g     
    16 a1g        17 a2u        18 eg         19 eg         20 t1u     
    21 t1u        22 t1u        23 t2u        24 t2u        25 t2u     
    26 t2g        27 t2g        28 t2g        29 t1u        30 t1u     
    31 t1u        32 a1g        33 t2g        34 t2g        35 t2g     
    36 t1u        37 t1u        38 t1u     


 Starting SCF solution at      15.3s



 ----------------------------------------------
         Quadratically convergent ROHF

 Convergence threshold     :          1.000E-06
 Maximum no. of iterations :           30
 Final Fock-matrix accuracy:          1.000E-10
 ----------------------------------------------


              iter       energy          gnorm     gmax       time
             ----- ------------------- --------- --------- --------
                 1     -307.3981142944  9.80D-01  2.29D-01     25.5
                 2     -307.4767990291  3.04D-01  5.00D-02     38.4
                 3     -307.4848984034  9.20D-03  1.51D-03     74.4
                 4     -307.4849080523  1.36D-05  3.04D-06    132.4
                 5     -307.4849080524  1.49D-08  2.99D-09    190.3


       Final RHF  results 
       ------------------ 

         Total SCF energy =   -307.484908052360
      One-electron energy =  -1144.659778118965
      Two-electron energy =    469.514851587405
 Nuclear repulsion energy =    367.660018479200

        Time for solution =    177.5s



       Symmetry analysis of molecular orbitals - final
       -----------------------------------------------

  Numbering of irreducible representations: 

     1 a1g         2 a1u         3 a2g         4 a2u         5 eg      
     6 eu          7 t1g         8 t1u         9 t2g        10 t2u     

  Orbital symmetries:

     1 a1g         2 t1u         3 t1u         4 t1u         5 t2g     
     6 t2g         7 t2g         8 a2u         9 a1g        10 t1u     
    11 t1u        12 t1u        13 t2g        14 t2g        15 t2g     
    16 a1g        17 a2u        18 t1u        19 t1u        20 t1u     
    21 eg         22 eg         23 t2u        24 t2u        25 t2u     
    26 t2g        27 t2g        28 t2g        29 a1g        30 t1u     
    31 t1u        32 t1u        33 t2g        34 t2g        35 t2g     
    36 t1u        37 t1u        38 t1u     

             Final eigenvalues
             -----------------

              1      
    1  -11.2215
    2  -11.2210
    3  -11.2210
    4  -11.2210
    5  -11.2205
    6  -11.2205
    7  -11.2205
    8  -11.2200
    9   -1.2432
   10   -0.9780
   11   -0.9780
   12   -0.9780
   13   -0.7677
   14   -0.7677
   15   -0.7677
   16   -0.7101
   17   -0.6415
   18   -0.5799
   19   -0.5799
   20   -0.5799
   21   -0.5788
   22   -0.5788
   23   -0.3901
   24   -0.3901
   25   -0.3901
   26   -0.3832
   27   -0.3832
   28   -0.3832
   29    0.1454
   30    0.1627
   31    0.1627
   32    0.1627
   33    0.1997
   34    0.1997
   35    0.1997
   36    0.2244
   37    0.2244
   38    0.2244

                       ROHF Final Molecular Orbital Analysis
                       -------------------------------------

 Vector    9  Occ=2.000000D+00  E=-1.243212D+00  Symmetry=a1g
              MO Center= -2.1D-17,  6.9D-18, -6.9D-17, r^2= 1.7D+00
   Bfn.  Coefficient  Atom+Function         Bfn.  Coefficient  Atom+Function  
  ----- ------------  ---------------      ----- ------------  ---------------
   114      0.162602   9 C  s               144      0.162602  10 C  s         
   174      0.162602  11 C  s               204      0.162602  12 C  s         
   234      0.162602  13 C  s               264      0.162602  14 C  s         
   294      0.162602  15 C  s               324      0.162602  16 C  s         

 Vector   10  Occ=2.000000D+00  E=-9.779501D-01  Symmetry=t1u
              MO Center= -1.4D-15, -5.6D-17,  1.2D-15, r^2= 2.6D+00
   Bfn.  Coefficient  Atom+Function         Bfn.  Coefficient  Atom+Function  
  ----- ------------  ---------------      ----- ------------  ---------------
   174      0.276358  11 C  s               294     -0.276358  15 C  s         
   144     -0.178311  10 C  s               234      0.178311  13 C  s         

 Vector   11  Occ=2.000000D+00  E=-9.779501D-01  Symmetry=t1u
              MO Center= -5.8D-16,  4.2D-16,  4.2D-16, r^2= 2.6D+00
   Bfn.  Coefficient  Atom+Function         Bfn.  Coefficient  Atom+Function  
  ----- ------------  ---------------      ----- ------------  ---------------
   204      0.285283  12 C  s               324     -0.285283  16 C  s         

 Vector   12  Occ=2.000000D+00  E=-9.779501D-01  Symmetry=t1u
              MO Center=  1.4D-16, -2.5D-16,  1.4D-16, r^2= 2.6D+00
   Bfn.  Coefficient  Atom+Function         Bfn.  Coefficient  Atom+Function  
  ----- ------------  ---------------      ----- ------------  ---------------
   114      0.257855   9 C  s               264     -0.257855  14 C  s         
   144     -0.198215  10 C  s               234      0.198215  13 C  s         

 Vector   13  Occ=2.000000D+00  E=-7.676504D-01  Symmetry=t2g
              MO Center= -1.9D-16, -5.0D-16,  5.7D-16, r^2= 4.1D+00
   Bfn.  Coefficient  Atom+Function         Bfn.  Coefficient  Atom+Function  
  ----- ------------  ---------------      ----- ------------  ---------------
   144      0.190338  10 C  s               234      0.190338  13 C  s         
   114     -0.153410   9 C  s               264     -0.153410  14 C  s         

 Vector   14  Occ=2.000000D+00  E=-7.676504D-01  Symmetry=t2g
              MO Center=  2.8D-16,  2.7D-15,  3.1D-16, r^2= 4.1D+00
   Bfn.  Coefficient  Atom+Function         Bfn.  Coefficient  Atom+Function  
  ----- ------------  ---------------      ----- ------------  ---------------
   174      0.238819  11 C  s               294      0.238819  15 C  s         
   144     -0.179491  10 C  s               234     -0.179491  13 C  s         
   176      0.173994  11 C  s               296      0.173994  15 C  s         

 Vector   15  Occ=2.000000D+00  E=-7.676504D-01  Symmetry=t2g
              MO Center=  5.6D-16,  6.8D-16,  3.3D-16, r^2= 4.1D+00
   Bfn.  Coefficient  Atom+Function         Bfn.  Coefficient  Atom+Function  
  ----- ------------  ---------------      ----- ------------  ---------------
   114      0.212904   9 C  s               204     -0.213632  12 C  s         
   264      0.212904  14 C  s               324     -0.213632  16 C  s         
   116      0.155113   9 C  s               206     -0.155643  12 C  s         
   266      0.155113  14 C  s               326     -0.155643  16 C  s         

 Vector   16  Occ=2.000000D+00  E=-7.101226D-01  Symmetry=a1g
              MO Center= -2.8D-17, -6.9D-17, -1.4D-17, r^2= 4.3D+00
   Bfn.  Coefficient  Atom+Function         Bfn.  Coefficient  Atom+Function  
  ----- ------------  ---------------      ----- ------------  ---------------
     2      0.088031   1 H  s                16      0.088031   2 H  s         
    30      0.088031   3 H  s                44      0.088031   4 H  s         
    58      0.088031   5 H  s                72      0.088031   6 H  s         
    86      0.088031   7 H  s               100      0.088031   8 H  s         

 Vector   17  Occ=2.000000D+00  E=-6.415426D-01  Symmetry=a2u
              MO Center=  4.2D-16, -1.7D-16,  2.4D-16, r^2= 5.1D+00
   Bfn.  Coefficient  Atom+Function         Bfn.  Coefficient  Atom+Function  
  ----- ------------  ---------------      ----- ------------  ---------------
   114      0.120083   9 C  s               144      0.120083  10 C  s         
   174      0.120083  11 C  s               204      0.120083  12 C  s         
   234     -0.120083  13 C  s               264     -0.120083  14 C  s         
   294     -0.120083  15 C  s               324     -0.120083  16 C  s         

 Vector   18  Occ=2.000000D+00  E=-5.799330D-01  Symmetry=t1u
              MO Center= -1.0D-15, -1.8D-15,  6.7D-16, r^2= 4.2D+00
   Bfn.  Coefficient  Atom+Function         Bfn.  Coefficient  Atom+Function  
  ----- ------------  ---------------      ----- ------------  ---------------
    30      0.161618   3 H  s                86     -0.161618   7 H  s         

 Vector   19  Occ=2.000000D+00  E=-5.799330D-01  Symmetry=t1u
              MO Center=  5.6D-16,  5.3D-16,  3.9D-16, r^2= 4.2D+00
   Bfn.  Coefficient  Atom+Function         Bfn.  Coefficient  Atom+Function  
  ----- ------------  ---------------      ----- ------------  ---------------
     2      0.168122   1 H  s                72     -0.168122   6 H  s         

 Vector   20  Occ=2.000000D+00  E=-5.799330D-01  Symmetry=t1u
              MO Center=  5.0D-16, -2.1D-15, -2.2D-16, r^2= 4.2D+00
   Bfn.  Coefficient  Atom+Function         Bfn.  Coefficient  Atom+Function  
  ----- ------------  ---------------      ----- ------------  ---------------
    44      0.148679   4 H  s               100     -0.148679   8 H  s         

 Vector   21  Occ=2.000000D+00  E=-5.788160D-01  Symmetry=eg
              MO Center=  2.8D-17,  1.4D-17, -5.6D-17, r^2= 2.6D+00
   Bfn.  Coefficient  Atom+Function         Bfn.  Coefficient  Atom+Function  
  ----- ------------  ---------------      ----- ------------  ---------------
   121      0.112376   9 C  py              151     -0.112376  10 C  py        
   181      0.112376  11 C  py              211     -0.112376  12 C  py        
   241      0.112376  13 C  py              271     -0.112376  14 C  py        
   301     -0.112376  15 C  py              331      0.112376  16 C  py        

 Vector   22  Occ=2.000000D+00  E=-5.788160D-01  Symmetry=eg
              MO Center=  5.6D-17, -6.9D-17,  1.7D-16, r^2= 2.6D+00
   Bfn.  Coefficient  Atom+Function         Bfn.  Coefficient  Atom+Function  
  ----- ------------  ---------------      ----- ------------  ---------------
   122      0.119350   9 C  pz              152      0.119350  10 C  pz        
   182     -0.119350  11 C  pz              212     -0.119350  12 C  pz        
   242     -0.119350  13 C  pz              272     -0.119350  14 C  pz        
   302      0.119350  15 C  pz              332      0.119350  16 C  pz        

 Vector   23  Occ=2.000000D+00  E=-3.900552D-01  Symmetry=t2u
              MO Center=  5.3D-15, -9.3D-15,  6.1D-15, r^2= 2.9D+00
   Bfn.  Coefficient  Atom+Function         Bfn.  Coefficient  Atom+Function  
  ----- ------------  ---------------      ----- ------------  ---------------
   182      0.153111  11 C  pz              212     -0.153111  12 C  pz        
   302      0.153111  15 C  pz              332     -0.153111  16 C  pz        

 Vector   24  Occ=2.000000D+00  E=-3.900552D-01  Symmetry=t2u
              MO Center=  7.7D-15, -2.6D-15,  8.3D-15, r^2= 2.9D+00
   Bfn.  Coefficient  Atom+Function         Bfn.  Coefficient  Atom+Function  
  ----- ------------  ---------------      ----- ------------  ---------------
   150      0.157367  10 C  px              180     -0.157367  11 C  px        
   240      0.157367  13 C  px              300     -0.157367  15 C  px        

 Vector   25  Occ=2.000000D+00  E=-3.900552D-01  Symmetry=t2u
              MO Center= -1.6D-15, -9.5D-16, -4.2D-17, r^2= 2.9D+00
   Bfn.  Coefficient  Atom+Function         Bfn.  Coefficient  Atom+Function  
  ----- ------------  ---------------      ----- ------------  ---------------
   120      0.147377   9 C  px              210     -0.147377  12 C  px        
   270      0.147377  14 C  px              330     -0.147377  16 C  px        
   151      0.142792  10 C  py              211     -0.142792  12 C  py        
   241      0.142792  13 C  py              331     -0.142792  16 C  py        

 Vector   26  Occ=2.000000D+00  E=-3.831558D-01  Symmetry=t2g
              MO Center= -6.3D-16,  4.7D-16,  2.0D-15, r^2= 3.5D+00
   Bfn.  Coefficient  Atom+Function         Bfn.  Coefficient  Atom+Function  
  ----- ------------  ---------------      ----- ------------  ---------------
   176      0.200517  11 C  s               296      0.200517  15 C  s         
    30     -0.153611   3 H  s                86     -0.153611   7 H  s         

 Vector   27  Occ=2.000000D+00  E=-3.831558D-01  Symmetry=t2g
              MO Center= -5.3D-15,  1.9D-15, -9.1D-15, r^2= 3.5D+00
   Bfn.  Coefficient  Atom+Function         Bfn.  Coefficient  Atom+Function  
  ----- ------------  ---------------      ----- ------------  ---------------
   146      0.182074  10 C  s               236      0.182074  13 C  s         

 Vector   28  Occ=2.000000D+00  E=-3.831558D-01  Symmetry=t2g
              MO Center= -1.4D-15,  4.5D-15, -6.3D-15, r^2= 3.5D+00
   Bfn.  Coefficient  Atom+Function         Bfn.  Coefficient  Atom+Function  
  ----- ------------  ---------------      ----- ------------  ---------------
   116      0.166773   9 C  s               266      0.166773  14 C  s         
   206     -0.160656  12 C  s               326     -0.160656  16 C  s         

 Vector   29  Occ=0.000000D+00  E= 1.453711D-01  Symmetry=a1g
              MO Center= -8.3D-17, -2.1D-15,  1.3D-15, r^2= 1.2D+01
   Bfn.  Coefficient  Atom+Function         Bfn.  Coefficient  Atom+Function  
  ----- ------------  ---------------      ----- ------------  ---------------
     3      0.921821   1 H  s                17      0.921821   2 H  s         
    31      0.921821   3 H  s                45      0.921821   4 H  s         
    59      0.921821   5 H  s                73      0.921821   6 H  s         
    87      0.921821   7 H  s               101      0.921821   8 H  s         
   116     -0.767258   9 C  s               146     -0.767258  10 C  s         

 Vector   30  Occ=0.000000D+00  E= 1.627484D-01  Symmetry=t1u
              MO Center=  5.7D-15, -3.0D-14, -8.1D-14, r^2= 1.1D+01
   Bfn.  Coefficient  Atom+Function         Bfn.  Coefficient  Atom+Function  
  ----- ------------  ---------------      ----- ------------  ---------------
   146      1.254153  10 C  s               236     -1.254153  13 C  s         
   206     -1.246599  12 C  s               326      1.246599  16 C  s         
   116     -1.044337   9 C  s               266      1.044337  14 C  s         
   176      1.036783  11 C  s               296     -1.036783  15 C  s         
    17     -0.896047   2 H  s                59      0.896047   5 H  s         

 Vector   31  Occ=0.000000D+00  E= 1.627484D-01  Symmetry=t1u
              MO Center=  1.1D-16, -1.7D-16,  2.8D-15, r^2= 1.1D+01
   Bfn.  Coefficient  Atom+Function         Bfn.  Coefficient  Atom+Function  
  ----- ------------  ---------------      ----- ------------  ---------------
   176      1.656042  11 C  s               296     -1.656042  15 C  s         
   146     -1.469639  10 C  s               236      1.469639  13 C  s         
    31     -1.183183   3 H  s                87      1.183183   7 H  s         
    17      1.050004   2 H  s                59     -1.050004   5 H  s         
   116     -0.524930   9 C  s               266      0.524930  14 C  s         

 Vector   32  Occ=0.000000D+00  E= 1.627484D-01  Symmetry=t1u
              MO Center=  1.9D-15,  5.5D-15,  6.9D-15, r^2= 1.1D+01
   Bfn.  Coefficient  Atom+Function         Bfn.  Coefficient  Atom+Function  
  ----- ------------  ---------------      ----- ------------  ---------------
   116      1.613431   9 C  s               266     -1.613431  14 C  s         
   206     -1.516819  12 C  s               326      1.516819  16 C  s         
     3     -1.152739   1 H  s                73      1.152739   6 H  s         
    45      1.083713   4 H  s               101     -1.083713   8 H  s         
   146     -0.486427  10 C  s               236      0.486427  13 C  s         

 Vector   33  Occ=0.000000D+00  E= 1.997058D-01  Symmetry=t2g
              MO Center=  5.8D-15, -1.5D-14,  8.4D-14, r^2= 1.4D+01
   Bfn.  Coefficient  Atom+Function         Bfn.  Coefficient  Atom+Function  
  ----- ------------  ---------------      ----- ------------  ---------------
    31     -1.723150   3 H  s                87     -1.723150   7 H  s         
    17      1.570702   2 H  s                59      1.570702   5 H  s         
    45      1.331591   4 H  s               101      1.331591   8 H  s         
     3     -1.179144   1 H  s                73     -1.179144   6 H  s         
   184      1.147487  11 C  py              304     -1.147487  15 C  py        

 Vector   34  Occ=0.000000D+00  E= 1.997058D-01  Symmetry=t2g
              MO Center= -6.7D-16, -2.2D-14, -1.8D-15, r^2= 1.4D+01
   Bfn.  Coefficient  Atom+Function         Bfn.  Coefficient  Atom+Function  
  ----- ------------  ---------------      ----- ------------  ---------------
    17      1.824795   2 H  s                59      1.824795   5 H  s         
    45     -1.781496   4 H  s               101     -1.781496   8 H  s         
   153      1.181811  10 C  px              243     -1.181811  13 C  px        
   213      1.162836  12 C  px              333     -1.162836  16 C  px        
     3     -1.045204   1 H  s                73     -1.045204   6 H  s         

 Vector   35  Occ=0.000000D+00  E= 1.997058D-01  Symmetry=t2g
              MO Center= -1.4D-15,  5.2D-14,  7.4D-16, r^2= 1.4D+01
   Bfn.  Coefficient  Atom+Function         Bfn.  Coefficient  Atom+Function  
  ----- ------------  ---------------      ----- ------------  ---------------
     3      1.991750   1 H  s                73      1.991750   6 H  s         
    31     -1.573799   3 H  s                87     -1.573799   7 H  s         
   125     -1.251336   9 C  pz              275      1.251336  14 C  pz        
    45     -1.225984   4 H  s               101     -1.225984   8 H  s         
   185     -1.068180  11 C  pz              305      1.068180  15 C  pz        

 Vector   36  Occ=0.000000D+00  E= 2.244263D-01  Symmetry=t1u
              MO Center= -1.5D-14,  7.7D-15,  1.2D-15, r^2= 9.0D+00
   Bfn.  Coefficient  Atom+Function         Bfn.  Coefficient  Atom+Function  
  ----- ------------  ---------------      ----- ------------  ---------------
     3      1.586936   1 H  s                73     -1.586936   6 H  s         
   125     -1.087369   9 C  pz              275     -1.087369  14 C  pz        
    45     -1.051989   4 H  s               101      1.051989   8 H  s         
   116      0.972572   9 C  s               266     -0.972572  14 C  s         
   124     -0.966140   9 C  py              274     -0.966140  14 C  py        

 Vector   37  Occ=0.000000D+00  E= 2.244263D-01  Symmetry=t1u
              MO Center= -8.6D-15, -8.2D-15,  1.0D-14, r^2= 9.0D+00
   Bfn.  Coefficient  Atom+Function         Bfn.  Coefficient  Atom+Function  
  ----- ------------  ---------------      ----- ------------  ---------------
    17      1.631213   2 H  s                59     -1.631213   5 H  s         
   153      1.093077  10 C  px              243      1.093077  13 C  px        
   146      0.999708  10 C  s               236     -0.999708  13 C  s         
   155     -0.954801  10 C  pz              245     -0.954801  13 C  pz        
    45     -0.912957   4 H  s               101      0.912957   8 H  s         

 Vector   38  Occ=0.000000D+00  E= 2.244263D-01  Symmetry=t1u
              MO Center= -6.2D-15,  1.5D-15, -1.8D-14, r^2= 9.0D+00
   Bfn.  Coefficient  Atom+Function         Bfn.  Coefficient  Atom+Function  
  ----- ------------  ---------------      ----- ------------  ---------------
    31      1.628074   3 H  s                87     -1.628074   7 H  s         
   184     -1.071433  11 C  py              304     -1.071433  15 C  py        
   176      0.997784  11 C  s               296     -0.997784  15 C  s         
   183      0.991479  11 C  px              303      0.991479  15 C  px        
    45     -0.961973   4 H  s               101      0.961973   8 H  s         

 Vector   39  Occ=0.000000D+00  E= 2.300945D-01  Symmetry=a2u
              MO Center= -8.3D-15,  1.8D-14, -1.6D-14, r^2= 1.5D+01
   Bfn.  Coefficient  Atom+Function         Bfn.  Coefficient  Atom+Function  
  ----- ------------  ---------------      ----- ------------  ---------------
     3      1.710523   1 H  s                17      1.710523   2 H  s         
    31      1.710523   3 H  s                45      1.710523   4 H  s         
    59     -1.710523   5 H  s                73     -1.710523   6 H  s         
    87     -1.710523   7 H  s               101     -1.710523   8 H  s         
   123     -0.905574   9 C  px              124     -0.905574   9 C  py        

 Vector   40  Occ=0.000000D+00  E= 3.489036D-01  Symmetry=t1g
              MO Center=  2.5D-16,  7.8D-16, -5.6D-17, r^2= 5.9D+00
   Bfn.  Coefficient  Atom+Function         Bfn.  Coefficient  Atom+Function  
  ----- ------------  ---------------      ----- ------------  ---------------
   153      1.135184  10 C  px              183     -1.135184  11 C  px        
   243     -1.135184  13 C  px              303      1.135184  15 C  px        
   154     -0.990246  10 C  py              214      0.990246  12 C  py        
   244      0.990246  13 C  py              334     -0.990246  16 C  py        
   124      0.964037   9 C  py              184     -0.964037  11 C  py        

 Vector   41  Occ=0.000000D+00  E= 3.489036D-01  Symmetry=t1g
              MO Center=  1.5D-15,  8.3D-16,  3.3D-16, r^2= 5.9D+00
   Bfn.  Coefficient  Atom+Function         Bfn.  Coefficient  Atom+Function  
  ----- ------------  ---------------      ----- ------------  ---------------
   125      1.289031   9 C  pz              155     -1.289031  10 C  pz        
   245      1.289031  13 C  pz              275     -1.289031  14 C  pz        
   123     -1.039153   9 C  px              213      1.039153  12 C  px        
   273      1.039153  14 C  px              333     -1.039153  16 C  px        
   153     -0.758813  10 C  px              183      0.758813  11 C  px        

 Vector   42  Occ=0.000000D+00  E= 3.489036D-01  Symmetry=t1g
              MO Center= -6.9D-17,  5.6D-17, -3.2D-15, r^2= 5.9D+00
   Bfn.  Coefficient  Atom+Function         Bfn.  Coefficient  Atom+Function  
  ----- ------------  ---------------      ----- ------------  ---------------
   185      1.292905  11 C  pz              215     -1.292905  12 C  pz        
   305     -1.292905  15 C  pz              335      1.292905  16 C  pz        
   124     -0.983922   9 C  py              184      0.983922  11 C  py        
   274      0.983922  14 C  py              304     -0.983922  15 C  py        
   154     -0.835579  10 C  py              214      0.835579  12 C  py        

 Vector   43  Occ=0.000000D+00  E= 3.679460D-01  Symmetry=t2g
              MO Center= -1.5D-13,  3.7D-14,  2.0D-14, r^2= 9.7D+00
   Bfn.  Coefficient  Atom+Function         Bfn.  Coefficient  Atom+Function  
  ----- ------------  ---------------      ----- ------------  ---------------
   206     -6.946992  12 C  s               326     -6.946992  16 C  s         
   176      6.713624  11 C  s               296      6.713624  15 C  s         
   146      4.183472  10 C  s               236      4.183472  13 C  s         
   116     -3.950105   9 C  s               266     -3.950105  14 C  s         
   215     -2.862820  12 C  pz              335      2.862820  16 C  pz        

 Vector   44  Occ=0.000000D+00  E= 3.679460D-01  Symmetry=t2g
              MO Center= -1.1D-14, -9.9D-15, -3.0D-14, r^2= 9.7D+00
   Bfn.  Coefficient  Atom+Function         Bfn.  Coefficient  Atom+Function  
  ----- ------------  ---------------      ----- ------------  ---------------
   116      8.535057   9 C  s               266      8.535057  14 C  s         
   206     -6.815096  12 C  s               326     -6.815096  16 C  s         
   123     -3.274903   9 C  px              273      3.274903  14 C  px        
   213      3.138011  12 C  px              333     -3.138011  16 C  px        
   124     -2.552555   9 C  py              176     -2.543184  11 C  s         

 Vector   45  Occ=0.000000D+00  E= 3.679460D-01  Symmetry=t2g
              MO Center=  1.5D-14, -5.2D-14, -7.8D-16, r^2= 9.7D+00
   Bfn.  Coefficient  Atom+Function         Bfn.  Coefficient  Atom+Function  
  ----- ------------  ---------------      ----- ------------  ---------------
   146      8.754971  10 C  s               236      8.754971  13 C  s         
   176     -6.579371  11 C  s               296     -6.579371  15 C  s         
   153      3.289733  10 C  px              243     -3.289733  13 C  px        
   183     -3.116576  11 C  px              303      3.116576  15 C  px        
   155     -2.604253  10 C  pz              245      2.604253  13 C  pz        

 Vector   46  Occ=0.000000D+00  E= 3.751813D-01  Symmetry=eg
              MO Center= -2.8D-16,  1.2D-16,  1.1D-15, r^2= 6.7D+00
   Bfn.  Coefficient  Atom+Function         Bfn.  Coefficient  Atom+Function  
  ----- ------------  ---------------      ----- ------------  ---------------
   125      0.282788   9 C  pz              155      0.282788  10 C  pz        
   185     -0.282788  11 C  pz              215     -0.282788  12 C  pz        
   245     -0.282788  13 C  pz              275     -0.282788  14 C  pz        
   305      0.282788  15 C  pz              335      0.282788  16 C  pz        
   122     -0.227223   9 C  pz              152     -0.227223  10 C  pz        

 Vector   47  Occ=0.000000D+00  E= 3.751813D-01  Symmetry=eg
              MO Center=  0.0D+00,  1.1D-16, -2.8D-17, r^2= 6.7D+00
   Bfn.  Coefficient  Atom+Function         Bfn.  Coefficient  Atom+Function  
  ----- ------------  ---------------      ----- ------------  ---------------
   123      0.292244   9 C  px              153     -0.292244  10 C  px        
   183     -0.292244  11 C  px              213      0.292244  12 C  px        
   243      0.292244  13 C  px              273     -0.292244  14 C  px        
   303      0.292244  15 C  px              333     -0.292244  16 C  px        
   120     -0.234821   9 C  px              150      0.234821  10 C  px        

 Vector   48  Occ=0.000000D+00  E= 3.799326D-01  Symmetry=a1g
              MO Center=  6.5D-16,  3.1D-16,  6.9D-16, r^2= 5.9D+00
   Bfn.  Coefficient  Atom+Function         Bfn.  Coefficient  Atom+Function  
  ----- ------------  ---------------      ----- ------------  ---------------
     2      0.472845   1 H  s                16      0.472845   2 H  s         
    30      0.472845   3 H  s                44      0.472845   4 H  s         
    58      0.472845   5 H  s                72      0.472845   6 H  s         
    86      0.472845   7 H  s               100      0.472845   8 H  s         
   116     -0.192574   9 C  s               146     -0.192574  10 C  s         

 Vector   49  Occ=0.000000D+00  E= 4.339556D-01  Symmetry=t2u
              MO Center=  7.5D-15,  2.2D-14, -8.3D-16, r^2= 7.9D+00
   Bfn.  Coefficient  Atom+Function         Bfn.  Coefficient  Atom+Function  
  ----- ------------  ---------------      ----- ------------  ---------------
   124      0.553810   9 C  py              184     -0.553810  11 C  py        
   274      0.553810  14 C  py              304     -0.553810  15 C  py        
   153      0.535247  10 C  px              183     -0.535247  11 C  px        
   243      0.535247  13 C  px              303     -0.535247  15 C  px        
   123     -0.474640   9 C  px              213      0.474640  12 C  px        

 Vector   50  Occ=0.000000D+00  E= 4.339556D-01  Symmetry=t2u
              MO Center=  5.7D-15,  1.4D-14,  6.1D-14, r^2= 7.9D+00
   Bfn.  Coefficient  Atom+Function         Bfn.  Coefficient  Atom+Function  
  ----- ------------  ---------------      ----- ------------  ---------------
   125      0.714028   9 C  pz              155     -0.714028  10 C  pz        
   245     -0.714028  13 C  pz              275      0.714028  14 C  pz        
   123     -0.424181   9 C  px              213      0.424181  12 C  px        
   273     -0.424181  14 C  px              333      0.424181  16 C  px        
   154     -0.400946  10 C  py              214      0.400946  12 C  py        

 Vector   51  Occ=0.000000D+00  E= 4.339556D-01  Symmetry=t2u
              MO Center=  4.0D-15, -6.1D-15,  3.1D-14, r^2= 7.9D+00
   Bfn.  Coefficient  Atom+Function         Bfn.  Coefficient  Atom+Function  
  ----- ------------  ---------------      ----- ------------  ---------------
   185      0.718097  11 C  pz              215     -0.718097  12 C  pz        
   305      0.718097  15 C  pz              335     -0.718097  16 C  pz        
   154     -0.384428  10 C  py              214      0.384428  12 C  py        
   244     -0.384428  13 C  py              334      0.384428  16 C  py        
   153      0.363371  10 C  px              183     -0.363371  11 C  px        

 Vector   52  Occ=0.000000D+00  E= 4.838127D-01  Symmetry=eu
              MO Center=  6.6D-14,  3.0D-14,  4.1D-15, r^2= 7.4D+00
   Bfn.  Coefficient  Atom+Function         Bfn.  Coefficient  Atom+Function  
  ----- ------------  ---------------      ----- ------------  ---------------
   123      2.262612   9 C  px              153     -2.262612  10 C  px        
   183     -2.262612  11 C  px              213      2.262612  12 C  px        
   243     -2.262612  13 C  px              273      2.262612  14 C  px        
   303     -2.262612  15 C  px              333      2.262612  16 C  px        
   124     -2.243968   9 C  py              154      2.243968  10 C  py        

 Vector   53  Occ=0.000000D+00  E= 4.838127D-01  Symmetry=eu
              MO Center=  5.6D-15, -1.7D-14, -1.4D-15, r^2= 7.4D+00
   Bfn.  Coefficient  Atom+Function         Bfn.  Coefficient  Atom+Function  
  ----- ------------  ---------------      ----- ------------  ---------------
   125      2.601875   9 C  pz              155      2.601875  10 C  pz        
   185     -2.601875  11 C  pz              215     -2.601875  12 C  pz        
   245      2.601875  13 C  pz              275      2.601875  14 C  pz        
   305     -2.601875  15 C  pz              335     -2.601875  16 C  pz        
   124     -1.317084   9 C  py              154      1.317084  10 C  py        

 Vector   54  Occ=0.000000D+00  E= 4.974809D-01  Symmetry=t1u
              MO Center=  2.4D-13,  2.3D-13,  6.1D-13, r^2= 6.0D+00
   Bfn.  Coefficient  Atom+Function         Bfn.  Coefficient  Atom+Function  
  ----- ------------  ---------------      ----- ------------  ---------------
   116      2.778445   9 C  s               266     -2.778445  14 C  s         
   146     -1.614588  10 C  s               236      1.614588  13 C  s         
   124     -1.399816   9 C  py              274     -1.399816  14 C  py        
   123     -1.149541   9 C  px              154     -1.153461  10 C  py        
   244     -1.153461  13 C  py              273     -1.149541  14 C  px        

 Vector   55  Occ=0.000000D+00  E= 4.974809D-01  Symmetry=t1u
              MO Center= -2.4D-13,  1.1D-13,  9.0D-14, r^2= 6.0D+00
   Bfn.  Coefficient  Atom+Function         Bfn.  Coefficient  Atom+Function  
  ----- ------------  ---------------      ----- ------------  ---------------
   176     -2.354952  11 C  s               296      2.354952  15 C  s         
   146      2.146525  10 C  s               236     -2.146525  13 C  s         
   185     -1.438941  11 C  pz              305     -1.438941  15 C  pz        
   155     -1.394823  10 C  pz              245     -1.394823  13 C  pz        
   125     -1.122990   9 C  pz              275     -1.122990  14 C  pz        

 Vector   56  Occ=0.000000D+00  E= 4.974809D-01  Symmetry=t1u
              MO Center= -8.7D-14,  1.4D-13,  1.7D-13, r^2= 6.0D+00
   Bfn.  Coefficient  Atom+Function         Bfn.  Coefficient  Atom+Function  
  ----- ------------  ---------------      ----- ------------  ---------------
   206      2.664759  12 C  s               326     -2.664759  16 C  s         
   176     -1.707220  11 C  s               296      1.707220  15 C  s         
   213     -1.451155  12 C  px              333     -1.451155  16 C  px        
   183     -1.248472  11 C  px              303     -1.248472  15 C  px        
   146     -1.130886  10 C  s               153     -1.126479  10 C  px        

 Vector   57  Occ=0.000000D+00  E= 5.694254D-01  Symmetry=a1g
              MO Center= -5.8D-14,  3.0D-14, -1.3D-13, r^2= 9.0D+00
   Bfn.  Coefficient  Atom+Function         Bfn.  Coefficient  Atom+Function  
  ----- ------------  ---------------      ----- ------------  ---------------
   116      1.630093   9 C  s               146      1.630093  10 C  s         
   176      1.630093  11 C  s               206      1.630093  12 C  s         
   236      1.630093  13 C  s               266      1.630093  14 C  s         
   296      1.630093  15 C  s               326      1.630093  16 C  s         
     3     -1.189327   1 H  s                17     -1.189327   2 H  s         


 center of mass
 --------------
 x =   0.00000000 y =   0.00000000 z =   0.00000000

 moments of inertia (a.u.)
 ------------------
         535.719720846287           0.000000000000           0.000000000000
           0.000000000000         535.719720846287           0.000000000000
           0.000000000000           0.000000000000         535.719720846287

  Mulliken analysis of the total density
  --------------------------------------

    Atom       Charge   Shell Charges
 -----------   ------   -------------------------------------------------------
    1 H    1     0.86   0.27  0.47  0.10  0.01  0.02  0.00
    2 H    1     0.86   0.27  0.47  0.10  0.01  0.02  0.00
    3 H    1     0.86   0.27  0.47  0.10  0.01  0.02  0.00
    4 H    1     0.86   0.27  0.47  0.10  0.01  0.02  0.00
    5 H    1     0.86   0.27  0.47  0.10  0.01  0.02  0.00
    6 H    1     0.86   0.27  0.47  0.10  0.01  0.02  0.00
    7 H    1     0.86   0.27  0.47  0.10  0.01  0.02  0.00
    8 H    1     0.86   0.27  0.47  0.10  0.01  0.02  0.00
    9 C    6     6.14   1.96  0.81  0.15  0.32  0.78  1.55  0.43  0.02  0.09  0.01
   10 C    6     6.14   1.96  0.81  0.15  0.32  0.78  1.55  0.43  0.02  0.09  0.01
   11 C    6     6.14   1.96  0.81  0.15  0.32  0.78  1.55  0.43  0.02  0.09  0.01
   12 C    6     6.14   1.96  0.81  0.15  0.32  0.78  1.55  0.43  0.02  0.09  0.01
   13 C    6     6.14   1.96  0.81  0.15  0.32  0.78  1.55  0.43  0.02  0.09  0.01
   14 C    6     6.14   1.96  0.81  0.15  0.32  0.78  1.55  0.43  0.02  0.09  0.01
   15 C    6     6.14   1.96  0.81  0.15  0.32  0.78  1.55  0.43  0.02  0.09  0.01
   16 C    6     6.14   1.96  0.81  0.15  0.32  0.78  1.55  0.43  0.02  0.09  0.01

       Multipole analysis of the density wrt the origin
       ------------------------------------------------

     L   x y z        total         open         nuclear
     -   - - -        -----         ----         -------
     0   0 0 0      0.000000      0.000000     56.000000

     1   1 0 0      0.000000      0.000000      0.000000
     1   0 1 0      0.000000      0.000000      0.000000
     1   0 0 1      0.000000      0.000000      0.000000

     2   2 0 0    -34.960013      0.000000    162.131488
     2   1 1 0      0.000000      0.000000      0.000000
     2   1 0 1      0.000000      0.000000      0.000000
     2   0 2 0    -34.960013      0.000000    162.131488
     2   0 1 1     -0.000000      0.000000      0.000000
     2   0 0 2    -34.960013      0.000000    162.131488

                   NWChem MP2 Semi-direct Energy/Gradient Module
                   ---------------------------------------------


                     cubane MP2/cc-pVTZ geometry optimization


  Basis functions       =    352
  Molecular orbitals    =    351
  Frozen core           =      8
  Frozen virtuals       =      0
  Active alpha occupied =     20
  Active beta occupied  =     20
  Active alpha virtual  =    323
  Active beta virtual   =    323
  Use MO symmetry       = F
  Use skeleton AO sym   = T

  AO/Fock/Back tols     =   1.0D-09  1.0D-09  1.0D-09

 GA uses MA = F    GA memory limited = T

 Available: 
  local mem=  5.53D+07
 global mem=  1.26D+08
 local disk=  5.28D+07
   1 passes of  20:        4641769                    2507457                 242106925.
   2 passes of  10:        4462249                    2507457                 121085149.
   3 passes of   7:        4408393                    2507457                  84778616.
   4 passes of   5:        4372489                    2507457                  60574261.
   5 passes of   4:        4354537                    2507457                  48472083.

 Semi-direct pass number   1 of   5  for RHF alpha+beta  at      198.4s
Node 0 wrote    312.7 Mb in      0.9 s     Agg I/O rate:   701.3 Mb/s
 Done moints_semi at      874.7s
 Done maket at      884.8s
 Done pijab at      889.7s
 Done wijab at      894.5s
 Done lai at      989.4s
 Done nonsep at     1079.2s
 Semi-direct pass number   2 of   5  for RHF alpha+beta  at     1079.2s
Node 0 wrote    312.7 Mb in      1.1 s     Agg I/O rate:   625.0 Mb/s
 Done moints_semi at     1750.4s
 Done maket at     1759.3s
 Done pijab at     1764.1s
 Done wijab at     1769.0s
 Done lai at     1864.0s
 Done nonsep at     1954.5s
 Semi-direct pass number   3 of   5  for RHF alpha+beta  at     1954.6s
Node 0 wrote    312.7 Mb in      1.0 s     Agg I/O rate:   647.4 Mb/s
 Done moints_semi at     2621.0s
 Done maket at     2632.0s
 Done pijab at     2636.7s
 Done wijab at     2641.6s
 Done lai at     2736.4s
 Done nonsep at     2827.4s
 Semi-direct pass number   4 of   5  for RHF alpha+beta  at     2827.5s
Node 0 wrote    312.7 Mb in      0.9 s     Agg I/O rate:   705.2 Mb/s
 Done moints_semi at     3499.0s
 Done maket at     3507.8s
 Done pijab at     3512.6s
 Done wijab at     3517.4s
 Done lai at     3612.6s
 Done nonsep at     3698.8s
 Semi-direct pass number   5 of   5  for RHF alpha+beta  at     3698.8s
Node 0 wrote    312.7 Mb in      1.0 s     Agg I/O rate:   668.1 Mb/s
 Done moints_semi at     4376.1s
 Done maket at     4384.8s
 Done pijab at     4389.6s
 Done wijab at     4394.4s
 Done lai at     4489.3s
 Done nonsep at     4581.4s
 Done multipass loop at     4581.5s


          -------------------------------------------
          SCF energy                -307.484908052360
          Correlation energy          -1.293302423260
          Singlet pairs               -0.815369058236
          Triplet pairs               -0.477933365024
          Total MP2 energy          -308.778210475620
          -------------------------------------------

                                NWChem CPHF Module
                                ------------------


    scftype = RHF 
    nclosed =   28
      nopen =    0
  variables =     9044
  tolerance =   1.0D-04
  max. iter =  100

 SCF residual:    1.4853109195428901E-008

            ----- linear solve (tol: 1.0E-04 prod-acc: 2.4E-10) -----

               iter nbas    rnorm     rnorm-scal   ratio     time
               ---- ---- ----------- ----------- --------- -------
                  1    1  4.3433E-02  1.8865E-01    0.0000  4682.3
                  2    2  1.4755E-02  6.4089E-02    0.3397  4693.8
                  3    3  2.3517E-03  1.0214E-02    0.1594  4705.4
                  4    4  4.4374E-04  1.9274E-03    0.1887  4717.0
                  5    5  5.4854E-05  2.3825E-04    0.1236  4728.4
                  6    6  6.0744E-06  2.6383E-05    0.1107  4739.8

 CPHF converged to   2.6D-05 in    6 iters

                Dipole Moments (a.u.)
                --------------
         Nuclear       SCF       SCF+MP2
       ----------- ----------- -----------
 X       0.000000    0.000000    0.000000
 Y       0.000000    0.000000    0.000000
 Z       0.000000    0.000000    0.000000


 MP2 RHF      natural orbital occupation numbers


              1      
    1    2.0000
    2    2.0000
    3    2.0000
    4    2.0000
    5    2.0000
    6    2.0000
    7    2.0000
    8    2.0000
    9    1.9831
   10    1.9771
   11    1.9771
   12    1.9771
   13    1.9717
   14    1.9717
   15    1.9717
   16    1.9669
   17    1.9627
   18    1.9563
   19    1.9563
   20    1.9563
   21    1.9485
   22    1.9485
   23    1.9430
   24    1.9430
   25    1.9430
   26    1.9387
   27    1.9387
   28    1.9387
   29    0.0344
   30    0.0344
   31    0.0344
   32    0.0313
   33    0.0313
   34    0.0313
   35    0.0255
   36    0.0255
   37    0.0255
   38    0.0254
   39    0.0254
   40    0.0215
   41    0.0196
   42    0.0186
   43    0.0186
   44    0.0186
   45    0.0180
   46    0.0180
   47    0.0180
   48    0.0151
   49    0.0151
   50    0.0136
   51    0.0133
   52    0.0133
   53    0.0133
   54    0.0125
   55    0.0125
   56    0.0118
   57    0.0118
   58    0.0118
   59    0.0118
   60    0.0071
   61    0.0071
   62    0.0071
   63    0.0061
   64    0.0061
   65    0.0061
   66    0.0040
   67    0.0040
   68    0.0040
   69    0.0039
   70    0.0039
   71    0.0039
   72    0.0039
   73    0.0038
   74    0.0038
   75    0.0038
   76    0.0037
   77    0.0037
   78    0.0037
   79    0.0031
   80    0.0031
   81    0.0030
   82    0.0030
   83    0.0030
   84    0.0025
   85    0.0022
   86    0.0022
   87    0.0022
   88    0.0022
   89    0.0022
   90    0.0020
   91    0.0019
   92    0.0019
   93    0.0019
   94    0.0018
   95    0.0018
   96    0.0018
   97    0.0017
   98    0.0017
   99    0.0017
  100    0.0015
  101    0.0015
  102    0.0014
  103    0.0014
  104    0.0014
  105    0.0012
  106    0.0012
  107    0.0012
  108    0.0012
  109    0.0012
  110    0.0012
  111    0.0011
  112    0.0011
  113    0.0010
  114    0.0010
  115    0.0010
  116    0.0010
  117    0.0009
  118    0.0009
  119    0.0009
  120    0.0008
  121    0.0008
  122    0.0008
  123    0.0008
  124    0.0007
  125    0.0007
  126    0.0007
  127    0.0007
  128    0.0006
  129    0.0006
  130    0.0006
  131    0.0006
  132    0.0006
  133    0.0006
  134    0.0005
  135    0.0005
  136    0.0005
  137    0.0005
  138    0.0005
  139    0.0005
  140    0.0005
  141    0.0005
  142    0.0005
  143    0.0005
  144    0.0005
  145    0.0005
  146    0.0004
  147    0.0004
  148    0.0004
  149    0.0004
  150    0.0004
  151    0.0004
  152    0.0004
  153    0.0004
  154    0.0004
  155    0.0004
  156    0.0004
  157    0.0004
  158    0.0003
  159    0.0003
  160    0.0003
  161    0.0003
  162    0.0003
  163    0.0003
  164    0.0003
  165    0.0003
  166    0.0003
  167    0.0003
  168    0.0003
  169    0.0003
  170    0.0003
  171    0.0003
  172    0.0003
  173    0.0003
  174    0.0003
  175    0.0003
  176    0.0003
  177    0.0003
  178    0.0002
  179    0.0002
  180    0.0002
  181    0.0002
  182    0.0002
  183    0.0002
  184    0.0002
  185    0.0002
  186    0.0002
  187    0.0002
  188    0.0002
  189    0.0002
  190    0.0002
  191    0.0002
  192    0.0002
  193    0.0002
  194    0.0002
  195    0.0002
  196    0.0002
  197    0.0002
  198    0.0002
  199    0.0002
  200    0.0002
  201    0.0002
  202    0.0002
  203    0.0002
  204    0.0002
  205    0.0001
  206    0.0001
  207    0.0001
  208    0.0001
  209    0.0001
  210    0.0001
  211    0.0001
  212    0.0001
  213    0.0001
  214    0.0001
  215    0.0001
  216    0.0001
  217    0.0001
  218    0.0001
  219    0.0001
  220    0.0001
  221    0.0001
  222    0.0001
  223    0.0001
  224    0.0001
  225    0.0001
  226    0.0001
  227    0.0001
  228    0.0001
  229    0.0001
  230    0.0001
  231    0.0001
  232    0.0001
  233    0.0001
  234    0.0001
  235    0.0001
  236    0.0001
  237    0.0001
  238    0.0001
  239    0.0001
  240    0.0001
  241    0.0001
  242    0.0001
  243    0.0001
  244    0.0001
  245    0.0001
  246    0.0001
  247    0.0001
  248    0.0001
  249    0.0001
  250    0.0001
  251    0.0001
  252    0.0001
  253    0.0001
  254    0.0001
  255    0.0001
  256    0.0001
  257    0.0001
  258    0.0001
  259    0.0001
  260    0.0001
  261    0.0001
  262    0.0001
  263    0.0001
  264    0.0001
  265    0.0001
  266    0.0001
  267    0.0001
  268    0.0001
  269    0.0001
  270    0.0001
  271    0.0001
  272    0.0000
  273    0.0000
[...]
   51 Bend                    10    14    11                90.00000    0.00000
   52 Bend                    10    14    12                90.00000    0.00000
   53 Bend                    10    15    12                90.00000    0.00000
   54 Bend                    10    16    11                90.00000    0.00000
   55 Bend                    11    13    12                90.00000    0.00000
   56 Bend                    11    14    12                90.00000    0.00000
   57 Bend                    13     9    15                90.00000    0.00000
   58 Bend                    13     9    16                90.00000    0.00000
   59 Bend                    13    11    14                90.00000    0.00000
   60 Bend                    13    11    16                90.00000    0.00000
   61 Bend                    13    12    14                90.00000    0.00000
   62 Bend                    13    12    15                90.00000    0.00000
   63 Bend                    14    10    15                90.00000    0.00000
   64 Bend                    14    10    16                90.00000    0.00000
   65 Bend                    14    11    16                90.00000    0.00000
   66 Bend                    14    12    15                90.00000    0.00000
   67 Bend                    15     9    16                90.00000    0.00000
   68 Bend                    15    10    16                90.00000    0.00000
   69 Torsion                  1     9    13     5           0.00000    0.00000
   70 Torsion                  1     9    13    11        -135.00000    0.00000
   71 Torsion                  1     9    13    12         135.00000   -0.00000
   72 Torsion                  1     9    15     7           0.00000    0.00000
   73 Torsion                  1     9    15    10         135.00000   -0.00000
   74 Torsion                  1     9    15    12        -135.00000    0.00000
   75 Torsion                  1     9    16     8           0.00000    0.00000
   76 Torsion                  1     9    16    10        -135.00000    0.00000
   77 Torsion                  1     9    16    11         135.00000   -0.00000
   78 Torsion                  2    10    14     6           0.00000    0.00000
   79 Torsion                  2    10    14    11         135.00000   -0.00000
   80 Torsion                  2    10    14    12        -135.00000    0.00000
   81 Torsion                  2    10    15     7           0.00000    0.00000
   82 Torsion                  2    10    15     9        -135.00000    0.00000
   83 Torsion                  2    10    15    12         135.00000   -0.00000
   84 Torsion                  2    10    16     8           0.00000    0.00000
   85 Torsion                  2    10    16     9         135.00000   -0.00000
   86 Torsion                  2    10    16    11        -135.00000    0.00000
   87 Torsion                  3    11    13     5           0.00000    0.00000
   88 Torsion                  3    11    13     9         135.00000   -0.00000
   89 Torsion                  3    11    13    12        -135.00000    0.00000
   90 Torsion                  3    11    14     6           0.00000    0.00000
   91 Torsion                  3    11    14    10        -135.00000    0.00000
   92 Torsion                  3    11    14    12         135.00000   -0.00000
   93 Torsion                  3    11    16     8           0.00000    0.00000
   94 Torsion                  3    11    16     9        -135.00000    0.00000
   95 Torsion                  3    11    16    10         135.00000   -0.00000
   96 Torsion                  4    12    13     5           0.00000    0.00000
   97 Torsion                  4    12    13     9        -135.00000    0.00000
   98 Torsion                  4    12    13    11         135.00000   -0.00000
   99 Torsion                  4    12    14     6           0.00000    0.00000
  100 Torsion                  4    12    14    10         135.00000   -0.00000
  101 Torsion                  4    12    14    11        -135.00000    0.00000
  102 Torsion                  4    12    15     7           0.00000    0.00000
  103 Torsion                  4    12    15     9         135.00000   -0.00000
  104 Torsion                  4    12    15    10        -135.00000    0.00000
  105 Torsion                  5    13     9    15        -135.00000    0.00000
  106 Torsion                  5    13     9    16         135.00000   -0.00000
  107 Torsion                  5    13    11    14         135.00000   -0.00000
  108 Torsion                  5    13    11    16        -135.00000    0.00000
  109 Torsion                  5    13    12    14        -135.00000    0.00000
  110 Torsion                  5    13    12    15         135.00000   -0.00000
  111 Torsion                  6    14    10    15         135.00000   -0.00000
  112 Torsion                  6    14    10    16        -135.00000    0.00000
  113 Torsion                  6    14    11    13        -135.00000    0.00000
  114 Torsion                  6    14    11    16         135.00000   -0.00000
  115 Torsion                  6    14    12    13         135.00000   -0.00000
  116 Torsion                  6    14    12    15        -135.00000    0.00000
  117 Torsion                  7    15     9    13         135.00000   -0.00000
  118 Torsion                  7    15     9    16        -135.00000    0.00000
  119 Torsion                  7    15    10    14        -135.00000    0.00000
  120 Torsion                  7    15    10    16         135.00000   -0.00000
  121 Torsion                  7    15    12    13        -135.00000    0.00000
  122 Torsion                  7    15    12    14         135.00000   -0.00000
  123 Torsion                  8    16     9    13        -135.00000    0.00000
  124 Torsion                  8    16     9    15         135.00000   -0.00000
  125 Torsion                  8    16    10    14         135.00000   -0.00000
  126 Torsion                  8    16    10    15        -135.00000    0.00000
  127 Torsion                  8    16    11    13         135.00000   -0.00000
  128 Torsion                  8    16    11    14        -135.00000    0.00000
  129 Torsion                  9    13    11    14         -90.00000    0.00000
  130 Torsion                  9    13    11    16           0.00000    0.00000
  131 Torsion                  9    13    12    14          90.00000    0.00000
  132 Torsion                  9    13    12    15           0.00000    0.00000
  133 Torsion                  9    15    10    14          90.00000    0.00000
  134 Torsion                  9    15    10    16           0.00000    0.00000
  135 Torsion                  9    15    12    13           0.00000    0.00000
  136 Torsion                  9    15    12    14         -90.00000    0.00000
  137 Torsion                  9    16    10    14         -90.00000    0.00000
  138 Torsion                  9    16    10    15           0.00000    0.00000
  139 Torsion                  9    16    11    13           0.00000    0.00000
  140 Torsion                  9    16    11    14          90.00000    0.00000
  141 Torsion                 10    14    11    13          90.00000    0.00000
  142 Torsion                 10    14    11    16           0.00000    0.00000
  143 Torsion                 10    14    12    13         -90.00000    0.00000
  144 Torsion                 10    14    12    15           0.00000    0.00000
  145 Torsion                 10    15     9    13         -90.00000    0.00000
  146 Torsion                 10    15     9    16           0.00000    0.00000
  147 Torsion                 10    15    12    13          90.00000    0.00000
  148 Torsion                 10    15    12    14           0.00000    0.00000
  149 Torsion                 10    16     9    13          90.00000    0.00000
  150 Torsion                 10    16     9    15           0.00000    0.00000
  151 Torsion                 10    16    11    13         -90.00000    0.00000
  152 Torsion                 10    16    11    14           0.00000    0.00000
  153 Torsion                 11    13     9    15          90.00000    0.00000
  154 Torsion                 11    13     9    16           0.00000    0.00000
  155 Torsion                 11    13    12    14           0.00000    0.00000
  156 Torsion                 11    13    12    15         -90.00000    0.00000
  157 Torsion                 11    14    10    15         -90.00000    0.00000
  158 Torsion                 11    14    10    16           0.00000    0.00000
  159 Torsion                 11    14    12    13           0.00000    0.00000
  160 Torsion                 11    14    12    15          90.00000    0.00000
  161 Torsion                 11    16     9    13           0.00000    0.00000
  162 Torsion                 11    16     9    15         -90.00000    0.00000
  163 Torsion                 11    16    10    14           0.00000    0.00000
  164 Torsion                 11    16    10    15          90.00000    0.00000
  165 Torsion                 12    13     9    15           0.00000    0.00000
  166 Torsion                 12    13     9    16         -90.00000    0.00000
  167 Torsion                 12    13    11    14           0.00000    0.00000
  168 Torsion                 12    13    11    16          90.00000    0.00000
  169 Torsion                 12    14    10    15           0.00000    0.00000
  170 Torsion                 12    14    10    16          90.00000    0.00000
  171 Torsion                 12    14    11    13           0.00000    0.00000
  172 Torsion                 12    14    11    16         -90.00000    0.00000
  173 Torsion                 12    15     9    13           0.00000    0.00000
  174 Torsion                 12    15     9    16          90.00000    0.00000
  175 Torsion                 12    15    10    14           0.00000    0.00000
  176 Torsion                 12    15    10    16         -90.00000    0.00000

 ==============================================================================
                                internuclear distances
 ------------------------------------------------------------------------------
       center one      |      center two      | atomic units |  angstroms
 ------------------------------------------------------------------------------
    9 C                |   1 H                |     2.05190  |     1.08582
   10 C                |   2 H                |     2.05190  |     1.08582
   11 C                |   3 H                |     2.05190  |     1.08582
   12 C                |   4 H                |     2.05190  |     1.08582
   13 C                |   5 H                |     2.05190  |     1.08582
   13 C                |   9 C                |     2.95977  |     1.56624
   13 C                |  11 C                |     2.95977  |     1.56624
   13 C                |  12 C                |     2.95977  |     1.56624
   14 C                |   6 H                |     2.05190  |     1.08582
   14 C                |  10 C                |     2.95977  |     1.56624
   14 C                |  11 C                |     2.95977  |     1.56624
   14 C                |  12 C                |     2.95977  |     1.56624
   15 C                |   7 H                |     2.05190  |     1.08582
   15 C                |   9 C                |     2.95977  |     1.56624
   15 C                |  10 C                |     2.95977  |     1.56624
   15 C                |  12 C                |     2.95977  |     1.56624
   16 C                |   8 H                |     2.05190  |     1.08582
   16 C                |   9 C                |     2.95977  |     1.56624
   16 C                |  10 C                |     2.95977  |     1.56624
   16 C                |  11 C                |     2.95977  |     1.56624
 ------------------------------------------------------------------------------
                         number of included internuclear distances:         20
 ==============================================================================



 ==============================================================================
                                 internuclear angles
 ------------------------------------------------------------------------------
        center 1       |       center 2       |       center 3       |  degrees
 ------------------------------------------------------------------------------
    1 H                |   9 C                |  13 C                |   125.26
    1 H                |   9 C                |  15 C                |   125.26
    1 H                |   9 C                |  16 C                |   125.26
   13 C                |   9 C                |  15 C                |    90.00
   13 C                |   9 C                |  16 C                |    90.00
   15 C                |   9 C                |  16 C                |    90.00
    2 H                |  10 C                |  14 C                |   125.26
    2 H                |  10 C                |  15 C                |   125.26
    2 H                |  10 C                |  16 C                |   125.26
   14 C                |  10 C                |  15 C                |    90.00
   14 C                |  10 C                |  16 C                |    90.00
   15 C                |  10 C                |  16 C                |    90.00
    3 H                |  11 C                |  13 C                |   125.26
    3 H                |  11 C                |  14 C                |   125.26
    3 H                |  11 C                |  16 C                |   125.26
   13 C                |  11 C                |  14 C                |    90.00
   13 C                |  11 C                |  16 C                |    90.00
   14 C                |  11 C                |  16 C                |    90.00
    4 H                |  12 C                |  13 C                |   125.26
    4 H                |  12 C                |  14 C                |   125.26
    4 H                |  12 C                |  15 C                |   125.26
   13 C                |  12 C                |  14 C                |    90.00
   13 C                |  12 C                |  15 C                |    90.00
   14 C                |  12 C                |  15 C                |    90.00
    5 H                |  13 C                |   9 C                |   125.26
    5 H                |  13 C                |  11 C                |   125.26
    5 H                |  13 C                |  12 C                |   125.26
    9 C                |  13 C                |  11 C                |    90.00
    9 C                |  13 C                |  12 C                |    90.00
   11 C                |  13 C                |  12 C                |    90.00
    6 H                |  14 C                |  10 C                |   125.26
    6 H                |  14 C                |  11 C                |   125.26
    6 H                |  14 C                |  12 C                |   125.26
   10 C                |  14 C                |  11 C                |    90.00
   10 C                |  14 C                |  12 C                |    90.00
   11 C                |  14 C                |  12 C                |    90.00
    7 H                |  15 C                |   9 C                |   125.26
    7 H                |  15 C                |  10 C                |   125.26
    7 H                |  15 C                |  12 C                |   125.26
    9 C                |  15 C                |  10 C                |    90.00
    9 C                |  15 C                |  12 C                |    90.00
   10 C                |  15 C                |  12 C                |    90.00
    8 H                |  16 C                |   9 C                |   125.26
    8 H                |  16 C                |  10 C                |   125.26
    8 H                |  16 C                |  11 C                |   125.26
    9 C                |  16 C                |  10 C                |    90.00
    9 C                |  16 C                |  11 C                |    90.00
   10 C                |  16 C                |  11 C                |    90.00
 ------------------------------------------------------------------------------
                            number of included internuclear angles:         48
 ==============================================================================




 Task  times  cpu:    12895.1s     wall:    13586.9s


                                NWChem Input Module
                                -------------------


 Summary of allocated global arrays
-----------------------------------
  No active global arrays



                         GA Statistics for process    0
                         ------------------------------

       create   destroy   get      put      acc     scatter   gather  read&inc
calls: 1579     1579     6.86e+06 3.81e+06 6.88e+06    0        0     6.90e+04 
number of processes/call 1.01e+00 1.07e+00 1.00e+00 0.00e+00 0.00e+00
bytes total:             2.96e+09 6.23e+09 2.73e+09 0.00e+00 0.00e+00 5.52e+05
bytes remote:            3.64e+08 2.64e+09 3.81e+08 0.00e+00 0.00e+00 0.00e+00
Max memory consumed for GA by this process: 19568960 bytes

MA_summarize_allocated_blocks: starting scan ...
MA_summarize_allocated_blocks: scan completed: 0 heap blocks, 0 stack blocks
MA usage statistics:

	allocation statistics:
					      heap	     stack
					      ----	     -----
	current number of blocks	         0	         0
	maximum number of blocks	        25	        36
	current total bytes		         0	         0
	maximum total bytes		    201216	  42842824
	maximum total K-bytes		       202	     42843
	maximum total M-bytes		         1	        43


                                     CITATION
                                     --------
                Please cite the following reference when publishing
                           results obtained with NWChem:

                 M. Valiev, E.J. Bylaska, N. Govind, K. Kowalski,
              T.P. Straatsma, H.J.J. van Dam, D. Wang, J. Nieplocha,
                        E. Apra, T.L. Windus, W.A. de Jong
                 "NWChem: a comprehensive and scalable open-source
                  solution for large scale molecular simulations"
                      Comput. Phys. Commun. 181, 1477 (2010)
                           doi:10.1016/j.cpc.2010.04.018

                              AUTHORS & CONTRIBUTORS
                              ----------------------
          E. Apra, E. J. Bylaska, W. A. de Jong, N. Govind, K. Kowalski,
       T. P. Straatsma, M. Valiev, H. J. J. van Dam, D. Wang, T. L. Windus,
        J. Hammond, J. Autschbach, K. Bhaskaran-Nair, J. Brabec, K. Lopata,
     F. Aquino, S. Hirata, M. T. Hackler, J. Mullin, P. Nichols, R. Peverati,
    J. Pittner, Y. Zhao, P.-D. Fan, R. J. Harrison, M. Dupuis, D. Silverstein,
    D. M. A. Smith, J. Nieplocha, V. Tipparaju, M. Krishnan, B. E. Van Kuiken,
        A. Vazquez-Mayagoitia, L. Jensen, M. Swart, Q. Wu, T. Van Voorhis,
     A. A. Auer, M. Nooijen, L. D. Crosby, E. Brown, G. Cisneros, G. I. Fann,
     H. Fruchtl, J. Garza, K. Hirao, R. Kendall, J. A. Nichols, K. Tsemekhman,
      K. Wolinski, J. Anchell, D. Bernholdt, P. Borowski, T. Clark, D. Clerc,
      H. Dachsel, M. Deegan, K. Dyall, D. Elwood, E. Glendening, M. Gutowski,
      A. Hess, J. Jaffe, B. Johnson, J. Ju, R. Kobayashi, R. Kutteh, Z. Lin,
   R. Littlefield, X. Long, B. Meng, T. Nakajima, S. Niu, L. Pollack, M. Rosing,
   K. Glaesemann, G. Sandrone, M. Stave, H. Taylor, G. Thomas, J. H. van Lenthe,
                                A. Wong, Z. Zhang.

 Total times  cpu:    12895.2s     wall:    13588.4s
