 argument  1 = cubane.nw
                                         
                                         


              Northwest Computational Chemistry Package (NWChem) 6.6
              ------------------------------------------------------


                    Environmental Molecular Sciences Laboratory
                       Pacific Northwest National Laboratory
                                Richland, WA 99352

                              Copyright (c) 1994-2015
                       Pacific Northwest National Laboratory
                            Battelle Memorial Institute

             NWChem is an open-source computational chemistry package
                        distributed under the terms of the
                      Educational Community License (ECL) 2.0
             A copy of the license is included with this distribution
                              in the LICENSE.TXT file

                                  ACKNOWLEDGMENT
                                  --------------

            This software and its documentation were developed at the
            EMSL at Pacific Northwest National Laboratory, a multiprogram
            national laboratory, operated for the U.S. Department of Energy
            by Battelle under Contract Number DE-AC05-76RL01830. Support
            for this work was provided by the Department of Energy Office
            of Biological and Environmental Research, Office of Basic
            Energy Sciences, and the Office of Advanced Scientific Computing.


           Job information
           ---------------

    hostname        = konkov-work
    program         = nwchem
    date            = Sun Feb 26 17:23:42 2017

    compiled        = Mon_Feb_15_08:24:17_2016
    source          = /build/nwchem-MF0R1k/nwchem-6.6+r27746
    nwchem branch   = 6.6
    nwchem revision = 27746
    ga revision     = 10594
    input           = cubane.nw
    prefix          = cubane.
    data base       = ./cubane.db
    status          = startup
    nproc           =        1
    time left       =     -1s



           Memory information
           ------------------

    heap     =   13107200 doubles =    100.0 Mbytes
    stack    =   13107197 doubles =    100.0 Mbytes
    global   =   26214400 doubles =    200.0 Mbytes (distinct from heap & stack)
    total    =   52428797 doubles =    400.0 Mbytes
    verify   = yes
    hardfail = no 


           Directory information
           ---------------------

  0 permanent = .
  0 scratch   = .




                                NWChem Input Module
                                -------------------


                       cubane MP2/PC-1 geometry optimization
                       -------------------------------------

 Scaling coordinates for geometry "geometry" by  1.889725989
 (inverse scale =  0.529177249)

 Turning off AUTOSYM since
 SYMMETRY directive was detected!


          ------
          auto-z
          ------


                             Geometry "geometry" -> ""
                             -------------------------

 Output coordinates in angstroms (scale by  1.889725989 to convert to a.u.)

  No.       Tag          Charge          X              Y              Z
 ---- ---------------- ---------- -------------- -------------- --------------
    1 H                    1.0000     1.41060000     1.41060000     1.41060000
    2 H                    1.0000    -1.41060000    -1.41060000     1.41060000
    3 H                    1.0000    -1.41060000     1.41060000    -1.41060000
    4 H                    1.0000     1.41060000    -1.41060000    -1.41060000
    5 H                    1.0000     1.41060000     1.41060000    -1.41060000
    6 H                    1.0000    -1.41060000    -1.41060000    -1.41060000
    7 H                    1.0000     1.41060000    -1.41060000     1.41060000
    8 H                    1.0000    -1.41060000     1.41060000     1.41060000
    9 C                    6.0000     0.78370000     0.78370000     0.78370000
   10 C                    6.0000    -0.78370000    -0.78370000     0.78370000
   11 C                    6.0000    -0.78370000     0.78370000    -0.78370000
   12 C                    6.0000     0.78370000    -0.78370000    -0.78370000
   13 C                    6.0000     0.78370000     0.78370000    -0.78370000
   14 C                    6.0000    -0.78370000    -0.78370000    -0.78370000
   15 C                    6.0000     0.78370000    -0.78370000     0.78370000
   16 C                    6.0000    -0.78370000     0.78370000     0.78370000

      Atomic Mass 
      ----------- 

      H                  1.007825
      C                 12.000000


 Effective nuclear repulsion energy (a.u.)     367.6689717653

            Nuclear Dipole moment (a.u.) 
            ----------------------------
        X                 Y               Z
 ---------------- ---------------- ----------------
     0.0000000000     0.0000000000     0.0000000000

      Symmetry information
      --------------------

 Group name              Oh       
 Group number             44
 Group order              48
 No. of unique centers     2

      Symmetry unique atoms

     1    9



                                Z-matrix (autoz)
                                -------- 

 Units are Angstrom for bonds and degrees for angles

      Type          Name      I     J     K     L     M      Value
      ----------- --------  ----- ----- ----- ----- ----- ----------
    1 Stretch                  1     9                       1.08582
    2 Stretch                  2    10                       1.08582
    3 Stretch                  3    11                       1.08582
    4 Stretch                  4    12                       1.08582
    5 Stretch                  5    13                       1.08582
    6 Stretch                  6    14                       1.08582
    7 Stretch                  7    15                       1.08582
    8 Stretch                  8    16                       1.08582
    9 Stretch                  9    13                       1.56740
   10 Stretch                  9    15                       1.56740
   11 Stretch                  9    16                       1.56740
   12 Stretch                 10    14                       1.56740
   13 Stretch                 10    15                       1.56740
   14 Stretch                 10    16                       1.56740
   15 Stretch                 11    13                       1.56740
   16 Stretch                 11    14                       1.56740
   17 Stretch                 11    16                       1.56740
   18 Stretch                 12    13                       1.56740
   19 Stretch                 12    14                       1.56740
   20 Stretch                 12    15                       1.56740
   21 Bend                     1     9    13               125.26439
   22 Bend                     1     9    15               125.26439
   23 Bend                     1     9    16               125.26439
   24 Bend                     2    10    14               125.26439
   25 Bend                     2    10    15               125.26439
   26 Bend                     2    10    16               125.26439
   27 Bend                     3    11    13               125.26439
   28 Bend                     3    11    14               125.26439
   29 Bend                     3    11    16               125.26439
   30 Bend                     4    12    13               125.26439
   31 Bend                     4    12    14               125.26439
   32 Bend                     4    12    15               125.26439
   33 Bend                     5    13     9               125.26439
   34 Bend                     5    13    11               125.26439
   35 Bend                     5    13    12               125.26439
   36 Bend                     6    14    10               125.26439
   37 Bend                     6    14    11               125.26439
   38 Bend                     6    14    12               125.26439
   39 Bend                     7    15     9               125.26439
   40 Bend                     7    15    10               125.26439
   41 Bend                     7    15    12               125.26439
   42 Bend                     8    16     9               125.26439
   43 Bend                     8    16    10               125.26439
   44 Bend                     8    16    11               125.26439
   45 Bend                     9    13    11                90.00000
   46 Bend                     9    13    12                90.00000
   47 Bend                     9    15    10                90.00000
   48 Bend                     9    15    12                90.00000
   49 Bend                     9    16    10                90.00000
   50 Bend                     9    16    11                90.00000
   51 Bend                    10    14    11                90.00000
   52 Bend                    10    14    12                90.00000
   53 Bend                    10    15    12                90.00000
   54 Bend                    10    16    11                90.00000
   55 Bend                    11    13    12                90.00000
   56 Bend                    11    14    12                90.00000
   57 Bend                    13     9    15                90.00000
   58 Bend                    13     9    16                90.00000
   59 Bend                    13    11    14                90.00000
   60 Bend                    13    11    16                90.00000
   61 Bend                    13    12    14                90.00000
   62 Bend                    13    12    15                90.00000
   63 Bend                    14    10    15                90.00000
   64 Bend                    14    10    16                90.00000
   65 Bend                    14    11    16                90.00000
   66 Bend                    14    12    15                90.00000
   67 Bend                    15     9    16                90.00000
   68 Bend                    15    10    16                90.00000
   69 Torsion                  1     9    13     5           0.00000
   70 Torsion                  1     9    13    11        -135.00000
   71 Torsion                  1     9    13    12         135.00000
   72 Torsion                  1     9    15     7           0.00000
   73 Torsion                  1     9    15    10         135.00000
   74 Torsion                  1     9    15    12        -135.00000
   75 Torsion                  1     9    16     8           0.00000
   76 Torsion                  1     9    16    10        -135.00000
   77 Torsion                  1     9    16    11         135.00000
   78 Torsion                  2    10    14     6           0.00000
   79 Torsion                  2    10    14    11         135.00000
   80 Torsion                  2    10    14    12        -135.00000
   81 Torsion                  2    10    15     7           0.00000
   82 Torsion                  2    10    15     9        -135.00000
   83 Torsion                  2    10    15    12         135.00000
   84 Torsion                  2    10    16     8           0.00000
   85 Torsion                  2    10    16     9         135.00000
   86 Torsion                  2    10    16    11        -135.00000
   87 Torsion                  3    11    13     5           0.00000
   88 Torsion                  3    11    13     9         135.00000
   89 Torsion                  3    11    13    12        -135.00000
   90 Torsion                  3    11    14     6           0.00000
   91 Torsion                  3    11    14    10        -135.00000
   92 Torsion                  3    11    14    12         135.00000
   93 Torsion                  3    11    16     8           0.00000
   94 Torsion                  3    11    16     9        -135.00000
   95 Torsion                  3    11    16    10         135.00000
   96 Torsion                  4    12    13     5           0.00000
   97 Torsion                  4    12    13     9        -135.00000
   98 Torsion                  4    12    13    11         135.00000
   99 Torsion                  4    12    14     6           0.00000
  100 Torsion                  4    12    14    10         135.00000
  101 Torsion                  4    12    14    11        -135.00000
  102 Torsion                  4    12    15     7           0.00000
  103 Torsion                  4    12    15     9         135.00000
  104 Torsion                  4    12    15    10        -135.00000
  105 Torsion                  5    13     9    15        -135.00000
  106 Torsion                  5    13     9    16         135.00000
  107 Torsion                  5    13    11    14         135.00000
  108 Torsion                  5    13    11    16        -135.00000
  109 Torsion                  5    13    12    14        -135.00000
  110 Torsion                  5    13    12    15         135.00000
  111 Torsion                  6    14    10    15         135.00000
  112 Torsion                  6    14    10    16        -135.00000
  113 Torsion                  6    14    11    13        -135.00000
  114 Torsion                  6    14    11    16         135.00000
  115 Torsion                  6    14    12    13         135.00000
  116 Torsion                  6    14    12    15        -135.00000
  117 Torsion                  7    15     9    13         135.00000
  118 Torsion                  7    15     9    16        -135.00000
  119 Torsion                  7    15    10    14        -135.00000
  120 Torsion                  7    15    10    16         135.00000
  121 Torsion                  7    15    12    13        -135.00000
  122 Torsion                  7    15    12    14         135.00000
  123 Torsion                  8    16     9    13        -135.00000
  124 Torsion                  8    16     9    15         135.00000
  125 Torsion                  8    16    10    14         135.00000
  126 Torsion                  8    16    10    15        -135.00000
  127 Torsion                  8    16    11    13         135.00000
  128 Torsion                  8    16    11    14        -135.00000
  129 Torsion                  9    13    11    14         -90.00000
  130 Torsion                  9    13    11    16           0.00000
  131 Torsion                  9    13    12    14          90.00000
  132 Torsion                  9    13    12    15           0.00000
  133 Torsion                  9    15    10    14          90.00000
  134 Torsion                  9    15    10    16           0.00000
  135 Torsion                  9    15    12    13           0.00000
  136 Torsion                  9    15    12    14         -90.00000
  137 Torsion                  9    16    10    14         -90.00000
  138 Torsion                  9    16    10    15           0.00000
  139 Torsion                  9    16    11    13           0.00000
  140 Torsion                  9    16    11    14          90.00000
  141 Torsion                 10    14    11    13          90.00000
  142 Torsion                 10    14    11    16           0.00000
  143 Torsion                 10    14    12    13         -90.00000
  144 Torsion                 10    14    12    15           0.00000
  145 Torsion                 10    15     9    13         -90.00000
  146 Torsion                 10    15     9    16           0.00000
  147 Torsion                 10    15    12    13          90.00000
  148 Torsion                 10    15    12    14           0.00000
  149 Torsion                 10    16     9    13          90.00000
  150 Torsion                 10    16     9    15           0.00000
  151 Torsion                 10    16    11    13         -90.00000
  152 Torsion                 10    16    11    14           0.00000
  153 Torsion                 11    13     9    15          90.00000
  154 Torsion                 11    13     9    16           0.00000
  155 Torsion                 11    13    12    14           0.00000
  156 Torsion                 11    13    12    15         -90.00000
  157 Torsion                 11    14    10    15         -90.00000
  158 Torsion                 11    14    10    16           0.00000
  159 Torsion                 11    14    12    13           0.00000
  160 Torsion                 11    14    12    15          90.00000
  161 Torsion                 11    16     9    13           0.00000
  162 Torsion                 11    16     9    15         -90.00000
  163 Torsion                 11    16    10    14           0.00000
  164 Torsion                 11    16    10    15          90.00000
  165 Torsion                 12    13     9    15           0.00000
  166 Torsion                 12    13     9    16         -90.00000
  167 Torsion                 12    13    11    14           0.00000
  168 Torsion                 12    13    11    16          90.00000
  169 Torsion                 12    14    10    15           0.00000
  170 Torsion                 12    14    10    16          90.00000
  171 Torsion                 12    14    11    13           0.00000
  172 Torsion                 12    14    11    16         -90.00000
  173 Torsion                 12    15     9    13           0.00000
  174 Torsion                 12    15     9    16          90.00000
  175 Torsion                 12    15    10    14           0.00000
  176 Torsion                 12    15    10    16         -90.00000


            XYZ format geometry
            -------------------
    16
 geometry
 H                     1.41060000     1.41060000     1.41060000
 H                    -1.41060000    -1.41060000     1.41060000
 H                    -1.41060000     1.41060000    -1.41060000
 H                     1.41060000    -1.41060000    -1.41060000
 H                     1.41060000     1.41060000    -1.41060000
 H                    -1.41060000    -1.41060000    -1.41060000
 H                     1.41060000    -1.41060000     1.41060000
 H                    -1.41060000     1.41060000     1.41060000
 C                     0.78370000     0.78370000     0.78370000
 C                    -0.78370000    -0.78370000     0.78370000
 C                    -0.78370000     0.78370000    -0.78370000
 C                     0.78370000    -0.78370000    -0.78370000
 C                     0.78370000     0.78370000    -0.78370000
 C                    -0.78370000    -0.78370000    -0.78370000
 C                     0.78370000    -0.78370000     0.78370000
 C                    -0.78370000     0.78370000     0.78370000

 ==============================================================================
                                internuclear distances
 ------------------------------------------------------------------------------
       center one      |      center two      | atomic units |  angstroms
 ------------------------------------------------------------------------------
    9 C                |   1 H                |     2.05191  |     1.08582
   10 C                |   2 H                |     2.05191  |     1.08582
   11 C                |   3 H                |     2.05191  |     1.08582
   12 C                |   4 H                |     2.05191  |     1.08582
   13 C                |   5 H                |     2.05191  |     1.08582
   13 C                |   9 C                |     2.96196  |     1.56740
   13 C                |  11 C                |     2.96196  |     1.56740
   13 C                |  12 C                |     2.96196  |     1.56740
   14 C                |   6 H                |     2.05191  |     1.08582
   14 C                |  10 C                |     2.96196  |     1.56740
   14 C                |  11 C                |     2.96196  |     1.56740
   14 C                |  12 C                |     2.96196  |     1.56740
   15 C                |   7 H                |     2.05191  |     1.08582
   15 C                |   9 C                |     2.96196  |     1.56740
   15 C                |  10 C                |     2.96196  |     1.56740
   15 C                |  12 C                |     2.96196  |     1.56740
   16 C                |   8 H                |     2.05191  |     1.08582
   16 C                |   9 C                |     2.96196  |     1.56740
   16 C                |  10 C                |     2.96196  |     1.56740
   16 C                |  11 C                |     2.96196  |     1.56740
 ------------------------------------------------------------------------------
                         number of included internuclear distances:         20
 ==============================================================================



 ==============================================================================
                                 internuclear angles
 ------------------------------------------------------------------------------
        center 1       |       center 2       |       center 3       |  degrees
 ------------------------------------------------------------------------------
    1 H                |   9 C                |  13 C                |   125.26
    1 H                |   9 C                |  15 C                |   125.26
    1 H                |   9 C                |  16 C                |   125.26
   13 C                |   9 C                |  15 C                |    90.00
   13 C                |   9 C                |  16 C                |    90.00
   15 C                |   9 C                |  16 C                |    90.00
    2 H                |  10 C                |  14 C                |   125.26
    2 H                |  10 C                |  15 C                |   125.26
    2 H                |  10 C                |  16 C                |   125.26
   14 C                |  10 C                |  15 C                |    90.00
   14 C                |  10 C                |  16 C                |    90.00
   15 C                |  10 C                |  16 C                |    90.00
    3 H                |  11 C                |  13 C                |   125.26
    3 H                |  11 C                |  14 C                |   125.26
    3 H                |  11 C                |  16 C                |   125.26
   13 C                |  11 C                |  14 C                |    90.00
   13 C                |  11 C                |  16 C                |    90.00
   14 C                |  11 C                |  16 C                |    90.00
    4 H                |  12 C                |  13 C                |   125.26
    4 H                |  12 C                |  14 C                |   125.26
    4 H                |  12 C                |  15 C                |   125.26
   13 C                |  12 C                |  14 C                |    90.00
   13 C                |  12 C                |  15 C                |    90.00
   14 C                |  12 C                |  15 C                |    90.00
    5 H                |  13 C                |   9 C                |   125.26
    5 H                |  13 C                |  11 C                |   125.26
    5 H                |  13 C                |  12 C                |   125.26
    9 C                |  13 C                |  11 C                |    90.00
    9 C                |  13 C                |  12 C                |    90.00
   11 C                |  13 C                |  12 C                |    90.00
    6 H                |  14 C                |  10 C                |   125.26
    6 H                |  14 C                |  11 C                |   125.26
    6 H                |  14 C                |  12 C                |   125.26
   10 C                |  14 C                |  11 C                |    90.00
   10 C                |  14 C                |  12 C                |    90.00
   11 C                |  14 C                |  12 C                |    90.00
    7 H                |  15 C                |   9 C                |   125.26
    7 H                |  15 C                |  10 C                |   125.26
    7 H                |  15 C                |  12 C                |   125.26
    9 C                |  15 C                |  10 C                |    90.00
    9 C                |  15 C                |  12 C                |    90.00
   10 C                |  15 C                |  12 C                |    90.00
    8 H                |  16 C                |   9 C                |   125.26
    8 H                |  16 C                |  10 C                |   125.26
    8 H                |  16 C                |  11 C                |   125.26
    9 C                |  16 C                |  10 C                |    90.00
    9 C                |  16 C                |  11 C                |    90.00
   10 C                |  16 C                |  11 C                |    90.00
 ------------------------------------------------------------------------------
                            number of included internuclear angles:         48
 ==============================================================================



  library name resolved from: environment
  library file name is: </home/vladimir/bin/nwchem-6.6/src/basis/libraries/>
  

 **** WARNING Zero Coefficient **** on atom "               C"
 angular momentum value: 0  standard basis set name: "PC-1"
 input line that generated warning:
    87:       0.125260E+04           0.557360E-02           0.000000E+00
  

 **** WARNING Zero Coefficient **** on atom "               C"
 angular momentum value: 0  standard basis set name: "PC-1"
 input line that generated warning:
    92:       0.542580E+00           0.000000E+00           0.534150E+00
  
                      Basis "ao basis" -> "" (spherical)
                      -----
  H (Hydrogen)
  ------------
            Exponent  Coefficients 
       -------------- ---------------------------------------------------------
  1 S  1.22520000E+01  0.022822
  1 S  1.86870000E+00  0.155640
  1 S  4.18210000E-01  0.488980

  2 S  1.06100000E-01  1.000000

  3 P  1.00000000E+00  1.000000

  C (Carbon)
  ----------
            Exponent  Coefficients 
       -------------- ---------------------------------------------------------
  1 S  1.25260000E+03  0.005574
  1 S  1.88570000E+02  0.041496
  1 S  4.28390000E+01  0.182630
  1 S  1.18180000E+01  0.461290
  1 S  3.55670000E+00  0.449310

  2 S  1.88570000E+02 -0.000274
  2 S  4.28390000E+01 -0.002558
  2 S  1.18180000E+01 -0.033375
  2 S  3.55670000E+00 -0.087305
  2 S  5.42580000E-01  0.534150

  3 S  1.60580000E-01  1.000000

  4 P  9.14260000E+00  0.044499
  4 P  1.92980000E+00  0.231080
  4 P  5.25220000E-01  0.512270

  5 P  1.36080000E-01  1.000000

  6 D  8.00000000E-01  1.000000



 Summary of "ao basis" -> "" (spherical)
 ------------------------------------------------------------------------------
       Tag                 Description            Shells   Functions and Types
 ---------------- ------------------------------  ------  ---------------------
 H                            PC-1                   3        5   2s1p
 C                            PC-1                   6       14   3s2p1d




                           NWChem Geometry Optimization
                           ----------------------------




                       cubane MP2/PC-1 geometry optimization


 maximum gradient threshold         (gmax) =   0.000450
 rms gradient threshold             (grms) =   0.000300
 maximum cartesian step threshold   (xmax) =   0.001800
 rms cartesian step threshold       (xrms) =   0.001200
 fixed trust radius                (trust) =   0.300000
 maximum step size to saddle      (sadstp) =   0.100000
 energy precision                  (eprec) =   1.0D-07
 maximum number of steps          (nptopt) =   20
 initial hessian option           (inhess) =    0
 line search option               (linopt) =    1
 hessian update option            (modupd) =    1
 saddle point option              (modsad) =    0
 initial eigen-mode to follow     (moddir) =    0
 initial variable to follow       (vardir) =    0
 follow first negative mode     (firstneg) =    T
 apply conjugacy                    (opcg) =    F
 source of zmatrix                         =   autoz   


          -------------------
          Energy Minimization
          -------------------


 Names of Z-matrix variables 
    1              2              3              4              5         
    6              7              8              9             10         
   11             12             13             14             15         
   16             17             18             19             20         
   21             22             23             24             25         
   26             27             28             29             30         
   31             32             33             34             35         
   36             37             38             39             40         
   41             42             43             44             45         
   46             47             48             49             50         
   51             52             53             54             55         
   56             57             58             59             60         
   61             62             63             64             65         
   66             67             68             69             70         
   71             72             73             74             75         
   76             77             78             79             80         
   81             82             83             84             85         
   86             87             88             89             90         
   91             92             93             94             95         
   96             97             98             99            100         
  101            102            103            104            105         
  106            107            108            109            110         
  111            112            113            114            115         
  116            117            118            119            120         
  121            122            123            124            125         
  126            127            128            129            130         
  131            132            133            134            135         
  136            137            138            139            140         
  141            142            143            144            145         
  146            147            148            149            150         
  151            152            153            154            155         
  156            157            158            159            160         
  161            162            163            164            165         
  166            167            168            169            170         
  171            172            173            174            175         
  176         

 Variables with the same non-blank name are constrained to be equal


 Using diagonal initial Hessian 
 Scaling for Hessian diagonals: bonds = 1.00  angles = 0.25  torsions = 0.10

          --------
          Step   0
          --------


                         Geometry "geometry" -> "geometry"
                         ---------------------------------

 Output coordinates in angstroms (scale by  1.889725989 to convert to a.u.)

  No.       Tag          Charge          X              Y              Z
 ---- ---------------- ---------- -------------- -------------- --------------
    1 H                    1.0000     1.41060000     1.41060000     1.41060000
    2 H                    1.0000    -1.41060000    -1.41060000     1.41060000
    3 H                    1.0000    -1.41060000     1.41060000    -1.41060000
    4 H                    1.0000     1.41060000    -1.41060000    -1.41060000
    5 H                    1.0000     1.41060000     1.41060000    -1.41060000
    6 H                    1.0000    -1.41060000    -1.41060000    -1.41060000
    7 H                    1.0000     1.41060000    -1.41060000     1.41060000
    8 H                    1.0000    -1.41060000     1.41060000     1.41060000
    9 C                    6.0000     0.78370000     0.78370000     0.78370000
   10 C                    6.0000    -0.78370000    -0.78370000     0.78370000
   11 C                    6.0000    -0.78370000     0.78370000    -0.78370000
   12 C                    6.0000     0.78370000    -0.78370000    -0.78370000
   13 C                    6.0000     0.78370000     0.78370000    -0.78370000
   14 C                    6.0000    -0.78370000    -0.78370000    -0.78370000
   15 C                    6.0000     0.78370000    -0.78370000     0.78370000
   16 C                    6.0000    -0.78370000     0.78370000     0.78370000

      Atomic Mass 
      ----------- 

      H                  1.007825
      C                 12.000000


 Effective nuclear repulsion energy (a.u.)     367.6689717653

            Nuclear Dipole moment (a.u.) 
            ----------------------------
        X                 Y               Z
 ---------------- ---------------- ----------------
     0.0000000000     0.0000000000     0.0000000000

      Symmetry information
      --------------------

 Group name              Oh       
 Group number             44
 Group order              48
 No. of unique centers     2

      Symmetry unique atoms

     1    9

                                 NWChem SCF Module
                                 -----------------


                       cubane MP2/PC-1 geometry optimization



  ao basis        = "ao basis"
  functions       =   152
  atoms           =    16
  closed shells   =    28
  open shells     =     0
  charge          =   0.00
  wavefunction    = RHF 
  input vectors   = atomic
  output vectors  = ./cubane.movecs
  use symmetry    = T
  symmetry adapt  = T


 Summary of "ao basis" -> "ao basis" (spherical)
 ------------------------------------------------------------------------------
       Tag                 Description            Shells   Functions and Types
 ---------------- ------------------------------  ------  ---------------------
 H                            PC-1                   3        5   2s1p
 C                            PC-1                   6       14   3s2p1d


      Symmetry analysis of basis
      --------------------------

        a1g         9
        a1u         0
        a2g         0
        a2u         9
        eg         10
        eu         10
        t1g        15
        t1u        42
        t2g        42
        t2u        15


 Forming initial guess at       0.2s


      Superposition of Atomic Density Guess
      -------------------------------------

 Sum of atomic energies:        -305.19922867

      Non-variational initial energy
      ------------------------------

 Total energy =    -311.934181
 1-e energy   =   -1137.585006
 2-e energy   =     457.981853
 HOMO         =      -0.299843
 LUMO         =       0.036129


      Symmetry analysis of molecular orbitals - initial
      -------------------------------------------------

  Numbering of irreducible representations: 

     1 a1g         2 a1u         3 a2g         4 a2u         5 eg      
     6 eu          7 t1g         8 t1u         9 t2g        10 t2u     

  Orbital symmetries:

     1 a1g         2 t1u         3 t1u         4 t1u         5 t2g     
     6 t2g         7 t2g         8 a2u         9 a1g        10 t1u     
    11 t1u        12 t1u        13 t2g        14 t2g        15 t2g     
    16 a1g        17 a2u        18 eg         19 eg         20 t1u     
    21 t1u        22 t1u        23 t2u        24 t2u        25 t2u     
    26 t2g        27 t2g        28 t2g        29 t1u        30 t1u     
    31 t1u        32 a1g        33 t1u        34 t1u        35 t1u     
    36 t2g        37 t2g        38 t2g     


 Starting SCF solution at       0.5s



 ----------------------------------------------
         Quadratically convergent ROHF

 Convergence threshold     :          1.000E-06
 Maximum no. of iterations :           30
 Final Fock-matrix accuracy:          1.000E-08
 ----------------------------------------------


              iter       energy          gnorm     gmax       time
             ----- ------------------- --------- --------- --------
                 1     -307.2122382332  9.45D-01  2.43D-01      1.3
                 2     -307.2920917526  2.01D-01  4.74D-02      2.5
                 3     -307.2948492400  4.97D-03  1.18D-03      4.0
                 4     -307.2948518662  7.23D-06  2.06D-06      6.2
                 5     -307.2948518662  5.90D-08  8.71D-09      8.0


       Final RHF  results 
       ------------------ 

         Total SCF energy =   -307.294851866245
      One-electron energy =  -1144.139558463915
      Two-electron energy =    469.175734832359
 Nuclear repulsion energy =    367.668971765311

        Time for solution =      7.3s



       Symmetry analysis of molecular orbitals - final
       -----------------------------------------------

  Numbering of irreducible representations: 

     1 a1g         2 a1u         3 a2g         4 a2u         5 eg      
     6 eu          7 t1g         8 t1u         9 t2g        10 t2u     

  Orbital symmetries:

     1 a1g         2 t1u         3 t1u         4 t1u         5 t2g     
     6 t2g         7 t2g         8 a2u         9 a1g        10 t1u     
    11 t1u        12 t1u        13 t2g        14 t2g        15 t2g     
    16 a1g        17 a2u        18 t1u        19 t1u        20 t1u     
    21 eg         22 eg         23 t2u        24 t2u        25 t2u     
    26 t2g        27 t2g        28 t2g        29 a1g        30 t1u     
    31 t1u        32 t1u        33 t2g        34 t2g        35 t2g     
    36 t1u        37 t1u        38 t1u     

             Final eigenvalues
             -----------------

              1      
    1  -11.2134
    2  -11.2129
    3  -11.2129
    4  -11.2129
    5  -11.2124
    6  -11.2124
    7  -11.2124
    8  -11.2118
    9   -1.2568
   10   -0.9875
   11   -0.9875
   12   -0.9875
   13   -0.7738
   14   -0.7738
   15   -0.7738
   16   -0.7163
   17   -0.6463
   18   -0.5872
   19   -0.5872
   20   -0.5872
   21   -0.5841
   22   -0.5841
   23   -0.3957
   24   -0.3957
   25   -0.3957
   26   -0.3910
   27   -0.3910
   28   -0.3910
   29    0.1607
   30    0.1796
   31    0.1796
   32    0.1796
   33    0.2213
   34    0.2213
   35    0.2213
   36    0.2342
   37    0.2342
   38    0.2342

                       ROHF Final Molecular Orbital Analysis
                       -------------------------------------

 Vector    9  Occ=2.000000D+00  E=-1.256796D+00  Symmetry=a1g
              MO Center= -7.0D-19, -6.7D-18, -1.4D-17, r^2= 1.6D+00
   Bfn.  Coefficient  Atom+Function         Bfn.  Coefficient  Atom+Function  
  ----- ------------  ---------------      ----- ------------  ---------------
    42      0.125724   9 C  s                56      0.125724  10 C  s         
    70      0.125724  11 C  s                84      0.125724  12 C  s         
    98      0.125724  13 C  s               112      0.125724  14 C  s         
   126      0.125724  15 C  s               140      0.125724  16 C  s         

 Vector   10  Occ=2.000000D+00  E=-9.875167D-01  Symmetry=t1u
              MO Center= -1.0D-16,  1.9D-16, -7.8D-17, r^2= 2.6D+00
   Bfn.  Coefficient  Atom+Function         Bfn.  Coefficient  Atom+Function  
  ----- ------------  ---------------      ----- ------------  ---------------
    57      0.201645  10 C  s                99     -0.201645  13 C  s         
    71     -0.199789  11 C  s               127      0.199789  15 C  s         
    56      0.176501  10 C  s                98     -0.176501  13 C  s         
    70     -0.174877  11 C  s               126      0.174877  15 C  s         

 Vector   11  Occ=2.000000D+00  E=-9.875167D-01  Symmetry=t1u
              MO Center= -2.2D-16,  1.6D-16,  1.4D-16, r^2= 2.6D+00
   Bfn.  Coefficient  Atom+Function         Bfn.  Coefficient  Atom+Function  
  ----- ------------  ---------------      ----- ------------  ---------------
    43      0.168347   9 C  s               113     -0.168347  14 C  s         
    71     -0.153163  11 C  s               127      0.153163  15 C  s         

 Vector   12  Occ=2.000000D+00  E=-9.875167D-01  Symmetry=t1u
              MO Center= -6.7D-17,  6.5D-17,  1.7D-16, r^2= 2.6D+00
   Bfn.  Coefficient  Atom+Function         Bfn.  Coefficient  Atom+Function  
  ----- ------------  ---------------      ----- ------------  ---------------
    85      0.216147  12 C  s               141     -0.216147  16 C  s         
    84      0.189195  12 C  s               140     -0.189195  16 C  s         
    43     -0.182770   9 C  s               113      0.182770  14 C  s         
    42     -0.159980   9 C  s               112      0.159980  14 C  s         

 Vector   13  Occ=2.000000D+00  E=-7.738061D-01  Symmetry=t2g
              MO Center=  1.5D-16, -2.5D-17,  1.3D-16, r^2= 4.1D+00
   Bfn.  Coefficient  Atom+Function         Bfn.  Coefficient  Atom+Function  
  ----- ------------  ---------------      ----- ------------  ---------------
    57      0.254749  10 C  s                99      0.254749  13 C  s         
    71     -0.206015  11 C  s               127     -0.206015  15 C  s         
    43     -0.162108   9 C  s               113     -0.162108  14 C  s         
    56      0.155822  10 C  s                98      0.155822  13 C  s         
     6      0.154915   2 H  s                21      0.154915   5 H  s         

 Vector   14  Occ=2.000000D+00  E=-7.738061D-01  Symmetry=t2g
              MO Center= -1.0D-16,  8.0D-17, -1.6D-16, r^2= 4.1D+00
   Bfn.  Coefficient  Atom+Function         Bfn.  Coefficient  Atom+Function  
  ----- ------------  ---------------      ----- ------------  ---------------
    43      0.275736   9 C  s               113      0.275736  14 C  s         
    71     -0.259114  11 C  s               127     -0.259114  15 C  s         
    42      0.168659   9 C  s               112      0.168659  14 C  s         
     1      0.167677   1 H  s                26      0.167677   6 H  s         
    70     -0.158492  11 C  s               126     -0.158492  15 C  s         

 Vector   15  Occ=2.000000D+00  E=-7.738061D-01  Symmetry=t2g
              MO Center=  3.0D-15, -8.1D-17, -3.8D-16, r^2= 4.1D+00
   Bfn.  Coefficient  Atom+Function         Bfn.  Coefficient  Atom+Function  
  ----- ------------  ---------------      ----- ------------  ---------------
    85      0.309856  12 C  s               141      0.309856  16 C  s         
    57     -0.206506  10 C  s                99     -0.206506  13 C  s         
    84      0.189529  12 C  s               140      0.189529  16 C  s         
    16      0.188426   4 H  s                36      0.188426   8 H  s         

 Vector   16  Occ=2.000000D+00  E=-7.162969D-01  Symmetry=a1g
              MO Center=  6.9D-17, -1.7D-16,  6.2D-17, r^2= 4.4D+00
   Bfn.  Coefficient  Atom+Function         Bfn.  Coefficient  Atom+Function  
  ----- ------------  ---------------      ----- ------------  ---------------
     1      0.130671   1 H  s                 6      0.130671   2 H  s         
    11      0.130671   3 H  s                16      0.130671   4 H  s         
    21      0.130671   5 H  s                26      0.130671   6 H  s         
    31      0.130671   7 H  s                36      0.130671   8 H  s         

 Vector   17  Occ=2.000000D+00  E=-6.463186D-01  Symmetry=a2u
              MO Center= -7.7D-16,  5.7D-16,  1.3D-15, r^2= 5.1D+00
   Bfn.  Coefficient  Atom+Function         Bfn.  Coefficient  Atom+Function  
  ----- ------------  ---------------      ----- ------------  ---------------
     1      0.161620   1 H  s                 6      0.161620   2 H  s         
    11      0.161620   3 H  s                16      0.161620   4 H  s         
    21     -0.161620   5 H  s                26     -0.161620   6 H  s         
    31     -0.161620   7 H  s                36     -0.161620   8 H  s         

 Vector   18  Occ=2.000000D+00  E=-5.871589D-01  Symmetry=t1u
              MO Center=  1.3D-16, -2.4D-16, -2.0D-17, r^2= 4.2D+00
   Bfn.  Coefficient  Atom+Function         Bfn.  Coefficient  Atom+Function  
  ----- ------------  ---------------      ----- ------------  ---------------
    16      0.245897   4 H  s                36     -0.245897   8 H  s         
    88     -0.169398  12 C  pz              144     -0.169398  16 C  pz        
    87     -0.165674  12 C  py              143     -0.165674  16 C  py        
    86      0.163875  12 C  px              142      0.163875  16 C  px        

 Vector   19  Occ=2.000000D+00  E=-5.871589D-01  Symmetry=t1u
              MO Center= -8.7D-17, -1.9D-16,  3.0D-16, r^2= 4.2D+00
   Bfn.  Coefficient  Atom+Function         Bfn.  Coefficient  Atom+Function  
  ----- ------------  ---------------      ----- ------------  ---------------
     6      0.218054   2 H  s                21     -0.218054   5 H  s         
    11     -0.179467   3 H  s                31      0.179467   7 H  s         
    58     -0.177586  10 C  px              100     -0.177586  13 C  px        
    72      0.165991  11 C  px              128      0.165991  15 C  px        

 Vector   20  Occ=2.000000D+00  E=-5.871589D-01  Symmetry=t1u
              MO Center=  3.4D-16,  1.3D-16, -2.8D-16, r^2= 4.2D+00
   Bfn.  Coefficient  Atom+Function         Bfn.  Coefficient  Atom+Function  
  ----- ------------  ---------------      ----- ------------  ---------------
     1      0.232854   1 H  s                26     -0.232854   6 H  s         
    45      0.175257   9 C  py              115      0.175257  14 C  py        
    46      0.158718   9 C  pz              116      0.158718  14 C  pz        

 Vector   21  Occ=2.000000D+00  E=-5.840622D-01  Symmetry=eg
              MO Center=  7.3D-18,  2.3D-17, -5.5D-18, r^2= 2.6D+00
   Bfn.  Coefficient  Atom+Function         Bfn.  Coefficient  Atom+Function  
  ----- ------------  ---------------      ----- ------------  ---------------
    44      0.157606   9 C  px               58     -0.157606  10 C  px        
    72     -0.157606  11 C  px               86      0.157606  12 C  px        
   100      0.157606  13 C  px              114     -0.157606  14 C  px        
   128      0.157606  15 C  px              142     -0.157606  16 C  px        

 Vector   22  Occ=2.000000D+00  E=-5.840622D-01  Symmetry=eg
              MO Center=  2.7D-16, -2.0D-16, -1.3D-16, r^2= 2.6D+00
   Bfn.  Coefficient  Atom+Function         Bfn.  Coefficient  Atom+Function  
  ----- ------------  ---------------      ----- ------------  ---------------
    46      0.175536   9 C  pz               60      0.175536  10 C  pz        
    74     -0.175536  11 C  pz               88     -0.175536  12 C  pz        
   102     -0.175536  13 C  pz              116     -0.175536  14 C  pz        
   130      0.175536  15 C  pz              144      0.175536  16 C  pz        

 Vector   23  Occ=2.000000D+00  E=-3.956779D-01  Symmetry=t2u
              MO Center= -2.2D-15,  7.9D-15, -9.4D-16, r^2= 2.9D+00
   Bfn.  Coefficient  Atom+Function         Bfn.  Coefficient  Atom+Function  
  ----- ------------  ---------------      ----- ------------  ---------------
    59     -0.195211  10 C  py               87      0.195211  12 C  py        
   101     -0.195211  13 C  py              143      0.195211  16 C  py        
    58      0.188368  10 C  px               72     -0.188368  11 C  px        
   100      0.188368  13 C  px              128     -0.188368  15 C  px        

 Vector   24  Occ=2.000000D+00  E=-3.956779D-01  Symmetry=t2u
              MO Center=  1.7D-15, -7.7D-16,  3.5D-15, r^2= 2.9D+00
   Bfn.  Coefficient  Atom+Function         Bfn.  Coefficient  Atom+Function  
  ----- ------------  ---------------      ----- ------------  ---------------
    74      0.232049  11 C  pz               88     -0.232049  12 C  pz        
   130      0.232049  15 C  pz              144     -0.232049  16 C  pz        
    45     -0.160798   9 C  py               73      0.160798  11 C  py        
   115     -0.160798  14 C  py              129      0.160798  15 C  py        
    77      0.152632  11 C  pz               91     -0.152632  12 C  pz        

 Vector   25  Occ=2.000000D+00  E=-3.956779D-01  Symmetry=t2u
              MO Center=  1.1D-15,  8.0D-16,  4.6D-16, r^2= 2.9D+00
   Bfn.  Coefficient  Atom+Function         Bfn.  Coefficient  Atom+Function  
  ----- ------------  ---------------      ----- ------------  ---------------
    46      0.238461   9 C  pz               60     -0.238461  10 C  pz        
   102     -0.238461  13 C  pz              116      0.238461  14 C  pz        
    49      0.156849   9 C  pz               63     -0.156849  10 C  pz        
   105     -0.156849  13 C  pz              119      0.156849  14 C  pz        

 Vector   26  Occ=2.000000D+00  E=-3.910141D-01  Symmetry=t2g
              MO Center= -8.8D-15,  7.8D-16,  1.1D-16, r^2= 3.5D+00
   Bfn.  Coefficient  Atom+Function         Bfn.  Coefficient  Atom+Function  
  ----- ------------  ---------------      ----- ------------  ---------------
    85     -0.229757  12 C  s               141     -0.229757  16 C  s         
    71      0.221263  11 C  s               127      0.221263  15 C  s         
    90     -0.195093  12 C  py              146      0.195093  16 C  py        
    76     -0.191804  11 C  py              132      0.191804  15 C  py        
    73     -0.190787  11 C  py               87     -0.191640  12 C  py        

 Vector   27  Occ=2.000000D+00  E=-3.910141D-01  Symmetry=t2g
              MO Center=  3.2D-15, -7.0D-15, -1.1D-15, r^2= 3.5D+00
   Bfn.  Coefficient  Atom+Function         Bfn.  Coefficient  Atom+Function  
  ----- ------------  ---------------      ----- ------------  ---------------
    57      0.279765  10 C  s                99      0.279765  13 C  s         
     6     -0.208165   2 H  s                21     -0.208165   5 H  s         
    61      0.191205  10 C  px              103     -0.191205  13 C  px        
    63     -0.184355  10 C  pz              105      0.184355  13 C  pz        
    62      0.160822  10 C  py              104     -0.160822  13 C  py        

 Vector   28  Occ=2.000000D+00  E=-3.910141D-01  Symmetry=t2g
              MO Center= -9.3D-16,  3.5D-16,  1.9D-16, r^2= 3.5D+00
   Bfn.  Coefficient  Atom+Function         Bfn.  Coefficient  Atom+Function  
  ----- ------------  ---------------      ----- ------------  ---------------
    43      0.266858   9 C  s               113      0.266858  14 C  s         
    49     -0.201384   9 C  pz              119      0.201384  14 C  pz        
     1     -0.198561   1 H  s                26     -0.198561   6 H  s         
    46     -0.182541   9 C  pz              116      0.182541  14 C  pz        
    74     -0.172646  11 C  pz              130      0.172646  15 C  pz        

 Vector   29  Occ=0.000000D+00  E= 1.606774D-01  Symmetry=a1g
              MO Center=  2.1D-16,  1.4D-15,  2.4D-15, r^2= 1.1D+01
   Bfn.  Coefficient  Atom+Function         Bfn.  Coefficient  Atom+Function  
  ----- ------------  ---------------      ----- ------------  ---------------
     2      0.673489   1 H  s                 7      0.673489   2 H  s         
    12      0.673489   3 H  s                17      0.673489   4 H  s         
    22      0.673489   5 H  s                27      0.673489   6 H  s         
    32      0.673489   7 H  s                37      0.673489   8 H  s         
    43     -0.591808   9 C  s                57     -0.591808  10 C  s         

 Vector   30  Occ=0.000000D+00  E= 1.795681D-01  Symmetry=t1u
              MO Center=  1.7D-15, -1.5D-15, -6.2D-16, r^2= 8.6D+00
   Bfn.  Coefficient  Atom+Function         Bfn.  Coefficient  Atom+Function  
  ----- ------------  ---------------      ----- ------------  ---------------
    85      1.104809  12 C  s               141     -1.104809  16 C  s         
    17     -0.904286   4 H  s                37      0.904286   8 H  s         
    71     -0.645449  11 C  s               127      0.645449  15 C  s         
    12      0.528300   3 H  s                32     -0.528300   7 H  s         
    43     -0.397405   9 C  s               113      0.397405  14 C  s         

 Vector   31  Occ=0.000000D+00  E= 1.795681D-01  Symmetry=t1u
              MO Center= -1.7D-14,  2.2D-14, -9.8D-15, r^2= 8.6D+00
   Bfn.  Coefficient  Atom+Function         Bfn.  Coefficient  Atom+Function  
  ----- ------------  ---------------      ----- ------------  ---------------
    43      0.956902   9 C  s               113     -0.956902  14 C  s         
    71     -0.912126  11 C  s               127      0.912126  15 C  s         
     2     -0.783224   1 H  s                27      0.783224   6 H  s         
    12      0.746575   3 H  s                32     -0.746575   7 H  s         
    76     -0.314677  11 C  py              132     -0.314677  15 C  py        

 Vector   32  Occ=0.000000D+00  E= 1.795681D-01  Symmetry=t1u
              MO Center=  2.1D-15,  1.9D-15, -7.2D-16, r^2= 8.6D+00
   Bfn.  Coefficient  Atom+Function         Bfn.  Coefficient  Atom+Function  
  ----- ------------  ---------------      ----- ------------  ---------------
    57      1.151880  10 C  s                99     -1.151880  13 C  s         
     7     -0.942814   2 H  s                22      0.942814   5 H  s         
    43     -0.525016   9 C  s               113      0.525016  14 C  s         
     2      0.429725   1 H  s                27     -0.429725   6 H  s         
    49     -0.318073   9 C  pz               71     -0.317260  11 C  s         

 Vector   33  Occ=0.000000D+00  E= 2.212652D-01  Symmetry=t2g
              MO Center=  2.3D-14, -1.4D-14,  1.9D-14, r^2= 1.3D+01
   Bfn.  Coefficient  Atom+Function         Bfn.  Coefficient  Atom+Function  
  ----- ------------  ---------------      ----- ------------  ---------------
    17      1.783024   4 H  s                37      1.783024   8 H  s         
    12     -1.085730   3 H  s                32     -1.085730   7 H  s         
    90      0.844074  12 C  py              146     -0.844074  16 C  py        
    89     -0.839091  12 C  px              145      0.839091  16 C  px        
    91      0.809960  12 C  pz              147     -0.809960  16 C  pz        

 Vector   34  Occ=0.000000D+00  E= 2.212652D-01  Symmetry=t2g
              MO Center= -9.8D-15, -3.0D-15, -2.4D-15, r^2= 1.3D+01
   Bfn.  Coefficient  Atom+Function         Bfn.  Coefficient  Atom+Function  
  ----- ------------  ---------------      ----- ------------  ---------------
     7      1.820861   2 H  s                22      1.820861   5 H  s         
     2     -0.901923   1 H  s                27     -0.901923   6 H  s         
    62      0.862223  10 C  py              104     -0.862223  13 C  py        
    61      0.847786  10 C  px              103     -0.847786  13 C  px        
    63     -0.836022  10 C  pz              105      0.836022  13 C  pz        

 Vector   35  Occ=0.000000D+00  E= 2.212652D-01  Symmetry=t2g
              MO Center= -6.0D-15, -8.0D-15, -4.8D-15, r^2= 1.3D+01
   Bfn.  Coefficient  Atom+Function         Bfn.  Coefficient  Atom+Function  
  ----- ------------  ---------------      ----- ------------  ---------------
     2      1.573847   1 H  s                27      1.573847   6 H  s         
    12     -1.372240   3 H  s                32     -1.372240   7 H  s         
    49     -0.766199   9 C  pz              119      0.766199  14 C  pz        
    47     -0.737261   9 C  px              117      0.737261  14 C  px        
    48     -0.697182   9 C  py              118      0.697182  14 C  py        

 Vector   36  Occ=0.000000D+00  E= 2.341896D-01  Symmetry=t1u
              MO Center= -3.1D-15,  1.9D-14,  1.7D-14, r^2= 8.4D+00
   Bfn.  Coefficient  Atom+Function         Bfn.  Coefficient  Atom+Function  
  ----- ------------  ---------------      ----- ------------  ---------------
     2      0.805103   1 H  s                 7     -0.808297   2 H  s         
    22      0.808297   5 H  s                27     -0.805103   6 H  s         
    47     -0.694912   9 C  px               61     -0.695626  10 C  px        
   103     -0.695626  13 C  px              117     -0.694912  14 C  px        
    75     -0.659661  11 C  px               89     -0.660375  12 C  px        

 Vector   37  Occ=0.000000D+00  E= 2.341896D-01  Symmetry=t1u
              MO Center= -4.3D-15, -2.3D-15,  2.4D-15, r^2= 8.4D+00
   Bfn.  Coefficient  Atom+Function         Bfn.  Coefficient  Atom+Function  
  ----- ------------  ---------------      ----- ------------  ---------------
    12      0.829879   3 H  s                32     -0.829879   7 H  s         
    17     -0.782781   4 H  s                37      0.782781   8 H  s         
    76     -0.700179  11 C  py              132     -0.700179  15 C  py        
    90     -0.689655  12 C  py              146     -0.689655  16 C  py        
     7     -0.672090   2 H  s                22      0.672090   5 H  s         

 Vector   38  Occ=0.000000D+00  E= 2.341896D-01  Symmetry=t1u
              MO Center=  2.4D-15, -8.9D-16, -3.8D-17, r^2= 8.4D+00
   Bfn.  Coefficient  Atom+Function         Bfn.  Coefficient  Atom+Function  
  ----- ------------  ---------------      ----- ------------  ---------------
     2      0.754333   1 H  s                17     -0.756234   4 H  s         
    27     -0.754333   6 H  s                37      0.756234   8 H  s         
     7      0.709066   2 H  s                12     -0.707165   3 H  s         
    22     -0.709066   5 H  s                32      0.707165   7 H  s         
    49     -0.686316   9 C  pz               91     -0.686741  12 C  pz        

 Vector   39  Occ=0.000000D+00  E= 2.394828D-01  Symmetry=a2u
              MO Center=  6.9D-15,  7.4D-15, -1.3D-15, r^2= 1.4D+01
   Bfn.  Coefficient  Atom+Function         Bfn.  Coefficient  Atom+Function  
  ----- ------------  ---------------      ----- ------------  ---------------
     2      1.476623   1 H  s                 7      1.476623   2 H  s         
    12      1.476623   3 H  s                17      1.476623   4 H  s         
    22     -1.476623   5 H  s                27     -1.476623   6 H  s         
    32     -1.476623   7 H  s                37     -1.476623   8 H  s         
    43      1.305178   9 C  s                57      1.305178  10 C  s         

 Vector   40  Occ=0.000000D+00  E= 3.555303D-01  Symmetry=t1g
              MO Center=  2.6D-16,  2.2D-15,  5.7D-16, r^2= 4.9D+00
   Bfn.  Coefficient  Atom+Function         Bfn.  Coefficient  Atom+Function  
  ----- ------------  ---------------      ----- ------------  ---------------
    47      0.721701   9 C  px               89     -0.721701  12 C  px        
   117     -0.721701  14 C  px              145      0.721701  16 C  px        
    48     -0.697623   9 C  py               62      0.700906  10 C  py        
    76      0.697623  11 C  py               90     -0.700906  12 C  py        
   104     -0.700906  13 C  py              118      0.697623  14 C  py        

 Vector   41  Occ=0.000000D+00  E= 3.555303D-01  Symmetry=t1g
              MO Center=  5.5D-16, -7.5D-17,  2.6D-15, r^2= 4.9D+00
   Bfn.  Coefficient  Atom+Function         Bfn.  Coefficient  Atom+Function  
  ----- ------------  ---------------      ----- ------------  ---------------
    61      0.721633  10 C  px               75     -0.721633  11 C  px        
   103     -0.721633  13 C  px              131      0.721633  15 C  px        
    49     -0.710542   9 C  pz               63      0.710542  10 C  pz        
   105     -0.710542  13 C  pz              119      0.710542  14 C  pz        
    77      0.687805  11 C  pz               91     -0.687805  12 C  pz        

 Vector   42  Occ=0.000000D+00  E= 3.555303D-01  Symmetry=t1g
              MO Center=  2.2D-16, -5.1D-16,  9.1D-17, r^2= 4.9D+00
   Bfn.  Coefficient  Atom+Function         Bfn.  Coefficient  Atom+Function  
  ----- ------------  ---------------      ----- ------------  ---------------
    77     -0.710947  11 C  pz               91      0.710947  12 C  pz        
   133      0.710947  15 C  pz              147     -0.710947  16 C  pz        
    48      0.700808   9 C  py               62      0.698256  10 C  py        
    76     -0.700808  11 C  py               90     -0.698256  12 C  py        
   104     -0.698256  13 C  py              118     -0.700808  14 C  py        

 Vector   43  Occ=0.000000D+00  E= 4.199551D-01  Symmetry=t2g
              MO Center=  1.2D-15,  3.5D-15, -3.9D-15, r^2= 7.1D+00
   Bfn.  Coefficient  Atom+Function         Bfn.  Coefficient  Atom+Function  
  ----- ------------  ---------------      ----- ------------  ---------------
    57      2.426301  10 C  s                99      2.426301  13 C  s         
    71     -2.252385  11 C  s               127     -2.252385  15 C  s         
    61      1.487535  10 C  px               75     -1.485268  11 C  px        
   103     -1.487535  13 C  px              131      1.485268  15 C  px        
     7      1.127304   2 H  s                22      1.127304   5 H  s         

 Vector   44  Occ=0.000000D+00  E= 4.199551D-01  Symmetry=t2g
              MO Center=  5.2D-15, -4.8D-15, -5.2D-15, r^2= 7.1D+00
   Bfn.  Coefficient  Atom+Function         Bfn.  Coefficient  Atom+Function  
  ----- ------------  ---------------      ----- ------------  ---------------
    85      2.324068  12 C  s               141      2.324068  16 C  s         
    71     -1.693701  11 C  s               127     -1.693701  15 C  s         
    57     -1.435412  10 C  s                99     -1.435412  13 C  s         
    91      1.280540  12 C  pz              147     -1.280540  16 C  pz        
    77     -1.272322  11 C  pz              133      1.272322  15 C  pz        

 Vector   45  Occ=0.000000D+00  E= 4.199551D-01  Symmetry=t2g
              MO Center= -3.3D-15, -9.1D-15, -1.4D-14, r^2= 7.1D+00
   Bfn.  Coefficient  Atom+Function         Bfn.  Coefficient  Atom+Function  
  ----- ------------  ---------------      ----- ------------  ---------------
    43      2.753809   9 C  s               113      2.753809  14 C  s         
    85     -1.678251  12 C  s               141     -1.678251  16 C  s         
    47     -1.415061   9 C  px              117      1.415061  14 C  px        
    89      1.401039  12 C  px              145     -1.401039  16 C  px        
     2      1.279470   1 H  s                27      1.279470   6 H  s         

 Vector   46  Occ=0.000000D+00  E= 5.048419D-01  Symmetry=eu
              MO Center=  1.6D-15,  6.2D-16,  1.6D-15, r^2= 5.6D+00
   Bfn.  Coefficient  Atom+Function         Bfn.  Coefficient  Atom+Function  
  ----- ------------  ---------------      ----- ------------  ---------------
    48      1.427577   9 C  py               62     -1.427577  10 C  py        
    76      1.427577  11 C  py               90     -1.427577  12 C  py        
   104     -1.427577  13 C  py              118      1.427577  14 C  py        
   132      1.427577  15 C  py              146     -1.427577  16 C  py        
    47     -1.220149   9 C  px               61      1.220149  10 C  px        


 center of mass
 --------------
 x =   0.00000000 y =   0.00000000 z =   0.00000000

 moments of inertia (a.u.)
 ------------------
         535.693401356527           0.000000000000           0.000000000000
           0.000000000000         535.693401356527           0.000000000000
           0.000000000000           0.000000000000         535.693401356527

  Mulliken analysis of the total density
  --------------------------------------

    Atom       Charge   Shell Charges
 -----------   ------   -------------------------------------------------------
    1 H    1     0.91   0.78  0.12  0.02
    2 H    1     0.91   0.78  0.12  0.02
    3 H    1     0.91   0.78  0.12  0.02
    4 H    1     0.91   0.78  0.12  0.02
    5 H    1     0.91   0.78  0.12  0.02
    6 H    1     0.91   0.78  0.12  0.02
    7 H    1     0.91   0.78  0.12  0.02
    8 H    1     0.91   0.78  0.12  0.02
    9 C    6     6.09   2.00  0.60  0.68  2.05  0.70  0.06
   10 C    6     6.09   2.00  0.60  0.68  2.05  0.70  0.06
   11 C    6     6.09   2.00  0.60  0.68  2.05  0.70  0.06
   12 C    6     6.09   2.00  0.60  0.68  2.05  0.70  0.06
   13 C    6     6.09   2.00  0.60  0.68  2.05  0.70  0.06
   14 C    6     6.09   2.00  0.60  0.68  2.05  0.70  0.06
   15 C    6     6.09   2.00  0.60  0.68  2.05  0.70  0.06
   16 C    6     6.09   2.00  0.60  0.68  2.05  0.70  0.06

       Multipole analysis of the density wrt the origin
       ------------------------------------------------

     L   x y z        total         open         nuclear
     -   - - -        -----         ----         -------
     0   0 0 0      0.000000      0.000000     56.000000

     1   1 0 0      0.000000      0.000000      0.000000
     1   0 1 0      0.000000      0.000000      0.000000
     1   0 0 1     -0.000000      0.000000      0.000000

     2   2 0 0    -35.646325      0.000000    162.123649
     2   1 1 0     -0.000000      0.000000      0.000000
     2   1 0 1      0.000000      0.000000      0.000000
     2   0 2 0    -35.646325      0.000000    162.123649
     2   0 1 1      0.000000      0.000000      0.000000
     2   0 0 2    -35.646325      0.000000    162.123649

                   NWChem MP2 Semi-direct Energy/Gradient Module
                   ---------------------------------------------


                       cubane MP2/PC-1 geometry optimization


  Basis functions       =    152
  Molecular orbitals    =    152
  Frozen core           =      8
  Frozen virtuals       =      0
  Active alpha occupied =     20
  Active beta occupied  =     20
  Active alpha virtual  =    124
  Active beta virtual   =    124
  Use MO symmetry       = F
  Use skeleton AO sym   = T

  AO/Fock/Back tols     =   1.0D-09  1.0D-09  1.0D-09

 GA uses MA = F    GA memory limited = T

 Available: 
  local mem=  2.62D+07
 global mem=  2.61D+07
 local disk=  1.45D+10
  mp2_memr nvloc                   124
  nvloc new                   124
   1 passes of  20:        3179016                     768737                  67571208.

 Semi-direct pass number   1 of   1  for RHF alpha+beta  at        6.6s
  vrange nnbf                 11348
Node 0 wrote    225.1 Mb in      0.1 s     Agg I/O rate:  2558.5 Mb/s
 Done moints_semi at       20.0s
  mp2_eaf for ta                     -1
  mp2_eaf for tb                     -1
 Done maket at       20.7s
 Done pijab at       20.8s
 Done wijab at       21.0s
 Done lai at       23.4s
 Done nonsep at       26.0s
 Done multipass loop at       26.0s


          -------------------------------------------
          SCF energy                -307.294851866245
          Correlation energy          -1.068641479627
          Singlet pairs               -0.664156169045
          Triplet pairs               -0.404485310582
          Total MP2 energy          -308.363493345873
          -------------------------------------------



          ---------------------------------------------------
                    Spin Component Scaled (SCS) MP2
          Same spin pairs                     -0.269656873721
          Same spin scaling factor             0.333333333333
          Opposite spin pairs                 -0.798984605906
          Opposite spin scaling fact.          1.200000000000
          SCS-MP2 correlation energy          -1.048667151661
          Total SCS-MP2 energy              -308.343519017906
          ---------------------------------------------------

                                NWChem CPHF Module
                                ------------------


    scftype = RHF 
    nclosed =   28
      nopen =    0
  variables =     3472
  tolerance =   1.0D-04
  max. iter =  100

 SCF residual:    5.9008033026544539E-008

            ----- linear solve (tol: 1.0E-04 prod-acc: 3.1E-12) -----

               iter nbas    rnorm     rnorm-scal   ratio     time
               ---- ---- ----------- ----------- --------- -------
                  1    1  3.0195E-02  1.6735E-01    0.0000    39.4
                  2    2  8.5069E-03  4.7149E-02    0.2817    39.9
                  3    3  1.2014E-03  6.6586E-03    0.1412    40.4
                  4    4  1.8586E-04  1.0301E-03    0.1547    40.8
                  5    5  1.7617E-05  9.7644E-05    0.0948    41.3

 CPHF converged to   9.8D-05 in    5 iters

                Dipole Moments (a.u.)
                --------------
         Nuclear       SCF       SCF+MP2
       ----------- ----------- -----------
 X       0.000000    0.000000    0.000000
 Y       0.000000    0.000000    0.000000
 Z       0.000000   -0.000000   -0.000000


 MP2 RHF      natural orbital occupation numbers


              1      
    1    2.0000
    2    2.0000
    3    2.0000
    4    2.0000
    5    2.0000
    6    2.0000
    7    2.0000
    8    2.0000
    9    1.9862
   10    1.9805
   11    1.9805
   12    1.9805
   13    1.9752
   14    1.9752
   15    1.9752
   16    1.9705
   17    1.9675
   18    1.9618
   19    1.9618
   20    1.9618
   21    1.9536
   22    1.9536
   23    1.9488
   24    1.9488
   25    1.9488
   26    1.9447
   27    1.9447
   28    1.9447
   29    0.0329
   30    0.0329
   31    0.0329
   32    0.0300
   33    0.0300
   34    0.0300
   35    0.0250
   36    0.0250
   37    0.0250
   38    0.0248
   39    0.0248
   40    0.0199
   41    0.0193
   42    0.0178
   43    0.0178
   44    0.0178
   45    0.0173
   46    0.0173
   47    0.0173
   48    0.0136
   49    0.0135
   50    0.0135
   51    0.0134
   52    0.0134
   53    0.0134
   54    0.0113
   55    0.0100
   56    0.0100
   57    0.0100
   58    0.0093
   59    0.0093
   60    0.0066
   61    0.0066
   62    0.0066
   63    0.0055
   64    0.0055
   65    0.0055
   66    0.0034
   67    0.0032
   68    0.0032
   69    0.0032
   70    0.0030
   71    0.0030
   72    0.0030
   73    0.0029
   74    0.0029
   75    0.0029
   76    0.0027
   77    0.0027
   78    0.0027
   79    0.0026
   80    0.0026
   81    0.0025
   82    0.0025
   83    0.0025
   84    0.0023
   85    0.0020
   86    0.0020
   87    0.0017
   88    0.0017
   89    0.0017
   90    0.0016
   91    0.0016
   92    0.0016
   93    0.0016
   94    0.0016
   95    0.0016
   96    0.0013
   97    0.0013
   98    0.0013
   99    0.0012
  100    0.0012
  101    0.0012
  102    0.0012
  103    0.0009
  104    0.0009
  105    0.0009
  106    0.0009
  107    0.0009
  108    0.0007
  109    0.0007
  110    0.0007
  111    0.0006
  112    0.0006
  113    0.0006
  114    0.0006
  115    0.0006
  116    0.0006
  117    0.0006
  118    0.0005
  119    0.0005
  120    0.0005
  121    0.0004
  122    0.0004
  123    0.0004
  124    0.0004
  125    0.0004
  126    0.0003
  127    0.0003
  128    0.0003
  129    0.0003
  130    0.0003
  131    0.0003
  132    0.0003
  133    0.0003
  134    0.0003
  135    0.0003
  136    0.0002
  137    0.0002
  138    0.0002
  139    0.0002
  140    0.0002
  141    0.0001
  142    0.0001
  143    0.0001
  144    0.0001
  145    0.0001
  146    0.0001
  147    0.0001
  148    0.0001
  149    0.0000
  150   -0.0001
  151   -0.0001
  152   -0.0001

  MP2 natural orbitals output to ./cubane.mp2nos

  Using symmetry


                         mp2 ENERGY GRADIENTS

    atom               coordinates                        gradient
                 x          y          z           x          y          z
   1 H       2.665647   2.665647   2.665647   -0.002784  -0.002784  -0.002784
   2 H      -2.665647  -2.665647   2.665647    0.002784   0.002784  -0.002784
   3 H      -2.665647   2.665647  -2.665647    0.002784  -0.002784   0.002784
   4 H       2.665647  -2.665647  -2.665647   -0.002784   0.002784   0.002784
   5 H       2.665647   2.665647  -2.665647   -0.002784  -0.002784   0.002784
   6 H      -2.665647  -2.665647  -2.665647    0.002784   0.002784   0.002784
   7 H       2.665647  -2.665647   2.665647   -0.002784   0.002784  -0.002784
   8 H      -2.665647   2.665647   2.665647    0.002784  -0.002784  -0.002784
   9 C       1.480978   1.480978   1.480978    0.003586   0.003586   0.003586
  10 C      -1.480978  -1.480978   1.480978   -0.003586  -0.003586   0.003586
  11 C      -1.480978   1.480978  -1.480978   -0.003586   0.003586  -0.003586
  12 C       1.480978  -1.480978  -1.480978    0.003586  -0.003586  -0.003586
  13 C       1.480978   1.480978  -1.480978    0.003586   0.003586  -0.003586
  14 C      -1.480978  -1.480978  -1.480978   -0.003586  -0.003586  -0.003586
  15 C       1.480978  -1.480978   1.480978    0.003586  -0.003586   0.003586
  16 C      -1.480978   1.480978   1.480978   -0.003586   0.003586   0.003586

                 ----------------------------------------
                 |  Time  |  1-e(secs)   |  2-e(secs)   |
                 ----------------------------------------
                 |  CPU   |       0.02   |       0.86   |
                 ----------------------------------------
                 |  WALL  |       0.01   |       0.84   |
                 ----------------------------------------
 -----------------------
 Performance information
 -----------------------

 Timer overhead =  4.00D-07 seconds/call

               Nr. of calls         CPU time (s)                 Wall time (s)                GFlops
             ---------------    -------------------     ------------------------------   -------------------
Name         Min   Avg   Max    Min     Avg     Max     Min     Avg     Max   Mx/calls   Min     Max     Sum
mp2: moin     1     1     1    13.     13.     13.      13.     13.     13.     13.      0.0     0.0     0.0   
mp2: make     1     1     1   0.60    0.60    0.60     0.64    0.64    0.64    0.64      0.0     0.0     0.0   
mp2: pija     1     1     1   0.47    0.47    0.47     0.15    0.15    0.15    0.15      0.0     0.0     0.0   
mp2: wija     1     1     1   0.38    0.38    0.38     0.16    0.16    0.16    0.16      0.0     0.0     0.0   
mp2: lai      1     1     1    6.5     6.5     6.5      2.5     2.5     2.5     2.5      0.0     0.0     0.0   
mp2: back     1     1     1    1.6     1.6     1.6     0.74    0.74    0.74    0.74      0.0     0.0     0.0   
mp2: nons     1     1     1    1.8     1.8     1.8      1.7     1.7     1.7     1.7      0.0     0.0     0.0   
mp2: laif     1     1     1    5.0     5.0     5.0      4.9     4.9     4.9     4.9      0.0     0.0     0.0   
mp2: cphf     1     1     1    2.9     2.9     2.9      2.4     2.4     2.4     2.4      0.0     0.0     0.0   
mp2: wijf     1     1     1    5.1     5.1     5.1      5.0     5.0     5.0     5.0      0.0     0.0     0.0   
mp2: sep      1     1     1    1.0     1.0     1.0     0.90    0.90    0.90    0.90      0.0     0.0     0.0   
mp2: tota     1     1     1    39.     39.     39.      33.     33.     33.     33.      0.0     0.0     0.0   

 The average no. of pstat calls per process was 1.20D+01
 with a timing overhead of 4.80D-06s


@ Step       Energy      Delta E   Gmax     Grms     Xrms     Xmax   Walltime
@ ---- ---------------- -------- -------- -------- -------- -------- --------
@    0    -308.36349335  0.0D+00  0.00482  0.00105  0.00000  0.00000     39.3
                                                                    



                                Z-matrix (autoz)
                                -------- 

 Units are Angstrom for bonds and degrees for angles

      Type          Name      I     J     K     L     M      Value     Gradient
      ----------- --------  ----- ----- ----- ----- ----- ---------- ----------
    1 Stretch                  1     9                       1.08582   -0.00482
    2 Stretch                  2    10                       1.08582   -0.00482
    3 Stretch                  3    11                       1.08582   -0.00482
    4 Stretch                  4    12                       1.08582   -0.00482
    5 Stretch                  5    13                       1.08582   -0.00482
    6 Stretch                  6    14                       1.08582   -0.00482
    7 Stretch                  7    15                       1.08582   -0.00482
    8 Stretch                  8    16                       1.08582   -0.00482
    9 Stretch                  9    13                       1.56740    0.00080
   10 Stretch                  9    15                       1.56740    0.00080
   11 Stretch                  9    16                       1.56740    0.00080
   12 Stretch                 10    14                       1.56740    0.00080
   13 Stretch                 10    15                       1.56740    0.00080
   14 Stretch                 10    16                       1.56740    0.00080
   15 Stretch                 11    13                       1.56740    0.00080
   16 Stretch                 11    14                       1.56740    0.00080
   17 Stretch                 11    16                       1.56740    0.00080
   18 Stretch                 12    13                       1.56740    0.00080
   19 Stretch                 12    14                       1.56740    0.00080
   20 Stretch                 12    15                       1.56740    0.00080
   21 Bend                     1     9    13               125.26439   -0.00000
   22 Bend                     1     9    15               125.26439    0.00000
   23 Bend                     1     9    16               125.26439    0.00000
   24 Bend                     2    10    14               125.26439   -0.00000
   25 Bend                     2    10    15               125.26439   -0.00000
   26 Bend                     2    10    16               125.26439    0.00000
   27 Bend                     3    11    13               125.26439    0.00000
   28 Bend                     3    11    14               125.26439    0.00000
   29 Bend                     3    11    16               125.26439   -0.00000
   30 Bend                     4    12    13               125.26439    0.00000
   31 Bend                     4    12    14               125.26439    0.00000
   32 Bend                     4    12    15               125.26439   -0.00000
   33 Bend                     5    13     9               125.26439   -0.00000
   34 Bend                     5    13    11               125.26439    0.00000
   35 Bend                     5    13    12               125.26439    0.00000
   36 Bend                     6    14    10               125.26439   -0.00000
   37 Bend                     6    14    11               125.26439   -0.00000
   38 Bend                     6    14    12               125.26439    0.00000
   39 Bend                     7    15     9               125.26439    0.00000
   40 Bend                     7    15    10               125.26439    0.00000
   41 Bend                     7    15    12               125.26439    0.00000
   42 Bend                     8    16     9               125.26439    0.00000
   43 Bend                     8    16    10               125.26439   -0.00000
   44 Bend                     8    16    11               125.26439   -0.00000
   45 Bend                     9    13    11                90.00000   -0.00000
   46 Bend                     9    13    12                90.00000   -0.00000
   47 Bend                     9    15    10                90.00000   -0.00000
[...]
   53 Bend                    10    15    12                90.00000    0.00000
   54 Bend                    10    16    11                90.00000    0.00000
   55 Bend                    11    13    12                90.00000    0.00000
   56 Bend                    11    14    12                90.00000    0.00000
   57 Bend                    13     9    15                90.00000    0.00000
   58 Bend                    13     9    16                90.00000    0.00000
   59 Bend                    13    11    14                90.00000    0.00000
   60 Bend                    13    11    16                90.00000    0.00000
   61 Bend                    13    12    14                90.00000    0.00000
   62 Bend                    13    12    15                90.00000    0.00000
   63 Bend                    14    10    15                90.00000    0.00000
   64 Bend                    14    10    16                90.00000    0.00000
   65 Bend                    14    11    16                90.00000    0.00000
   66 Bend                    14    12    15                90.00000    0.00000
   67 Bend                    15     9    16                90.00000    0.00000
   68 Bend                    15    10    16                90.00000    0.00000
   69 Torsion                  1     9    13     5           0.00000    0.00000
   70 Torsion                  1     9    13    11        -135.00000    0.00000
   71 Torsion                  1     9    13    12         135.00000   -0.00000
   72 Torsion                  1     9    15     7           0.00000    0.00000
   73 Torsion                  1     9    15    10         135.00000   -0.00000
   74 Torsion                  1     9    15    12        -135.00000    0.00000
   75 Torsion                  1     9    16     8           0.00000    0.00000
   76 Torsion                  1     9    16    10        -135.00000    0.00000
   77 Torsion                  1     9    16    11         135.00000   -0.00000
   78 Torsion                  2    10    14     6           0.00000    0.00000
   79 Torsion                  2    10    14    11         135.00000   -0.00000
   80 Torsion                  2    10    14    12        -135.00000    0.00000
   81 Torsion                  2    10    15     7           0.00000    0.00000
   82 Torsion                  2    10    15     9        -135.00000    0.00000
   83 Torsion                  2    10    15    12         135.00000   -0.00000
   84 Torsion                  2    10    16     8           0.00000    0.00000
   85 Torsion                  2    10    16     9         135.00000   -0.00000
   86 Torsion                  2    10    16    11        -135.00000    0.00000
   87 Torsion                  3    11    13     5           0.00000    0.00000
   88 Torsion                  3    11    13     9         135.00000   -0.00000
   89 Torsion                  3    11    13    12        -135.00000    0.00000
   90 Torsion                  3    11    14     6           0.00000    0.00000
   91 Torsion                  3    11    14    10        -135.00000    0.00000
   92 Torsion                  3    11    14    12         135.00000   -0.00000
   93 Torsion                  3    11    16     8           0.00000    0.00000
   94 Torsion                  3    11    16     9        -135.00000    0.00000
   95 Torsion                  3    11    16    10         135.00000   -0.00000
   96 Torsion                  4    12    13     5           0.00000    0.00000
   97 Torsion                  4    12    13     9        -135.00000    0.00000
   98 Torsion                  4    12    13    11         135.00000   -0.00000
   99 Torsion                  4    12    14     6           0.00000    0.00000
  100 Torsion                  4    12    14    10         135.00000   -0.00000
  101 Torsion                  4    12    14    11        -135.00000    0.00000
  102 Torsion                  4    12    15     7           0.00000    0.00000
  103 Torsion                  4    12    15     9         135.00000   -0.00000
  104 Torsion                  4    12    15    10        -135.00000    0.00000
  105 Torsion                  5    13     9    15        -135.00000    0.00000
  106 Torsion                  5    13     9    16         135.00000   -0.00000
  107 Torsion                  5    13    11    14         135.00000   -0.00000
  108 Torsion                  5    13    11    16        -135.00000    0.00000
  109 Torsion                  5    13    12    14        -135.00000    0.00000
  110 Torsion                  5    13    12    15         135.00000   -0.00000
  111 Torsion                  6    14    10    15         135.00000   -0.00000
  112 Torsion                  6    14    10    16        -135.00000    0.00000
  113 Torsion                  6    14    11    13        -135.00000    0.00000
  114 Torsion                  6    14    11    16         135.00000   -0.00000
  115 Torsion                  6    14    12    13         135.00000   -0.00000
  116 Torsion                  6    14    12    15        -135.00000    0.00000
  117 Torsion                  7    15     9    13         135.00000   -0.00000
  118 Torsion                  7    15     9    16        -135.00000    0.00000
  119 Torsion                  7    15    10    14        -135.00000    0.00000
  120 Torsion                  7    15    10    16         135.00000   -0.00000
  121 Torsion                  7    15    12    13        -135.00000    0.00000
  122 Torsion                  7    15    12    14         135.00000   -0.00000
  123 Torsion                  8    16     9    13        -135.00000    0.00000
  124 Torsion                  8    16     9    15         135.00000   -0.00000
  125 Torsion                  8    16    10    14         135.00000   -0.00000
  126 Torsion                  8    16    10    15        -135.00000    0.00000
  127 Torsion                  8    16    11    13         135.00000   -0.00000
  128 Torsion                  8    16    11    14        -135.00000    0.00000
  129 Torsion                  9    13    11    14         -90.00000    0.00000
  130 Torsion                  9    13    11    16           0.00000    0.00000
  131 Torsion                  9    13    12    14          90.00000    0.00000
  132 Torsion                  9    13    12    15           0.00000    0.00000
  133 Torsion                  9    15    10    14          90.00000    0.00000
  134 Torsion                  9    15    10    16           0.00000    0.00000
  135 Torsion                  9    15    12    13           0.00000    0.00000
  136 Torsion                  9    15    12    14         -90.00000    0.00000
  137 Torsion                  9    16    10    14         -90.00000    0.00000
  138 Torsion                  9    16    10    15           0.00000    0.00000
  139 Torsion                  9    16    11    13           0.00000    0.00000
  140 Torsion                  9    16    11    14          90.00000    0.00000
  141 Torsion                 10    14    11    13          90.00000    0.00000
  142 Torsion                 10    14    11    16           0.00000    0.00000
  143 Torsion                 10    14    12    13         -90.00000    0.00000
  144 Torsion                 10    14    12    15           0.00000    0.00000
  145 Torsion                 10    15     9    13         -90.00000    0.00000
  146 Torsion                 10    15     9    16           0.00000    0.00000
  147 Torsion                 10    15    12    13          90.00000    0.00000
  148 Torsion                 10    15    12    14           0.00000    0.00000
  149 Torsion                 10    16     9    13          90.00000    0.00000
  150 Torsion                 10    16     9    15           0.00000    0.00000
  151 Torsion                 10    16    11    13         -90.00000    0.00000
  152 Torsion                 10    16    11    14           0.00000    0.00000
  153 Torsion                 11    13     9    15          90.00000    0.00000
  154 Torsion                 11    13     9    16           0.00000    0.00000
  155 Torsion                 11    13    12    14           0.00000    0.00000
  156 Torsion                 11    13    12    15         -90.00000    0.00000
  157 Torsion                 11    14    10    15         -90.00000    0.00000
  158 Torsion                 11    14    10    16           0.00000    0.00000
  159 Torsion                 11    14    12    13           0.00000    0.00000
  160 Torsion                 11    14    12    15          90.00000    0.00000
  161 Torsion                 11    16     9    13           0.00000    0.00000
  162 Torsion                 11    16     9    15         -90.00000    0.00000
  163 Torsion                 11    16    10    14           0.00000    0.00000
  164 Torsion                 11    16    10    15          90.00000    0.00000
  165 Torsion                 12    13     9    15           0.00000    0.00000
  166 Torsion                 12    13     9    16         -90.00000    0.00000
  167 Torsion                 12    13    11    14           0.00000    0.00000
  168 Torsion                 12    13    11    16          90.00000    0.00000
  169 Torsion                 12    14    10    15           0.00000    0.00000
  170 Torsion                 12    14    10    16          90.00000    0.00000
  171 Torsion                 12    14    11    13           0.00000    0.00000
  172 Torsion                 12    14    11    16         -90.00000    0.00000
  173 Torsion                 12    15     9    13           0.00000    0.00000
  174 Torsion                 12    15     9    16          90.00000    0.00000
  175 Torsion                 12    15    10    14           0.00000    0.00000
  176 Torsion                 12    15    10    16         -90.00000    0.00000

 ==============================================================================
                                internuclear distances
 ------------------------------------------------------------------------------
       center one      |      center two      | atomic units |  angstroms
 ------------------------------------------------------------------------------
    9 C                |   1 H                |     2.06506  |     1.09278
   10 C                |   2 H                |     2.06506  |     1.09278
   11 C                |   3 H                |     2.06506  |     1.09278
   12 C                |   4 H                |     2.06506  |     1.09278
   13 C                |   5 H                |     2.06506  |     1.09278
   13 C                |   9 C                |     2.95883  |     1.56575
   13 C                |  11 C                |     2.95883  |     1.56575
   13 C                |  12 C                |     2.95883  |     1.56575
   14 C                |   6 H                |     2.06506  |     1.09278
   14 C                |  10 C                |     2.95883  |     1.56575
   14 C                |  11 C                |     2.95883  |     1.56575
   14 C                |  12 C                |     2.95883  |     1.56575
   15 C                |   7 H                |     2.06506  |     1.09278
   15 C                |   9 C                |     2.95883  |     1.56575
   15 C                |  10 C                |     2.95883  |     1.56575
   15 C                |  12 C                |     2.95883  |     1.56575
   16 C                |   8 H                |     2.06506  |     1.09278
   16 C                |   9 C                |     2.95883  |     1.56575
   16 C                |  10 C                |     2.95883  |     1.56575
   16 C                |  11 C                |     2.95883  |     1.56575
 ------------------------------------------------------------------------------
                         number of included internuclear distances:         20
 ==============================================================================



 ==============================================================================
                                 internuclear angles
 ------------------------------------------------------------------------------
        center 1       |       center 2       |       center 3       |  degrees
 ------------------------------------------------------------------------------
    1 H                |   9 C                |  13 C                |   125.26
    1 H                |   9 C                |  15 C                |   125.26
    1 H                |   9 C                |  16 C                |   125.26
   13 C                |   9 C                |  15 C                |    90.00
   13 C                |   9 C                |  16 C                |    90.00
   15 C                |   9 C                |  16 C                |    90.00
    2 H                |  10 C                |  14 C                |   125.26
    2 H                |  10 C                |  15 C                |   125.26
    2 H                |  10 C                |  16 C                |   125.26
   14 C                |  10 C                |  15 C                |    90.00
   14 C                |  10 C                |  16 C                |    90.00
   15 C                |  10 C                |  16 C                |    90.00
    3 H                |  11 C                |  13 C                |   125.26
    3 H                |  11 C                |  14 C                |   125.26
    3 H                |  11 C                |  16 C                |   125.26
   13 C                |  11 C                |  14 C                |    90.00
   13 C                |  11 C                |  16 C                |    90.00
   14 C                |  11 C                |  16 C                |    90.00
    4 H                |  12 C                |  13 C                |   125.26
    4 H                |  12 C                |  14 C                |   125.26
    4 H                |  12 C                |  15 C                |   125.26
   13 C                |  12 C                |  14 C                |    90.00
   13 C                |  12 C                |  15 C                |    90.00
   14 C                |  12 C                |  15 C                |    90.00
    5 H                |  13 C                |   9 C                |   125.26
    5 H                |  13 C                |  11 C                |   125.26
    5 H                |  13 C                |  12 C                |   125.26
    9 C                |  13 C                |  11 C                |    90.00
    9 C                |  13 C                |  12 C                |    90.00
   11 C                |  13 C                |  12 C                |    90.00
    6 H                |  14 C                |  10 C                |   125.26
    6 H                |  14 C                |  11 C                |   125.26
    6 H                |  14 C                |  12 C                |   125.26
   10 C                |  14 C                |  11 C                |    90.00
   10 C                |  14 C                |  12 C                |    90.00
   11 C                |  14 C                |  12 C                |    90.00
    7 H                |  15 C                |   9 C                |   125.26
    7 H                |  15 C                |  10 C                |   125.26
    7 H                |  15 C                |  12 C                |   125.26
    9 C                |  15 C                |  10 C                |    90.00
    9 C                |  15 C                |  12 C                |    90.00
   10 C                |  15 C                |  12 C                |    90.00
    8 H                |  16 C                |   9 C                |   125.26
    8 H                |  16 C                |  10 C                |   125.26
    8 H                |  16 C                |  11 C                |   125.26
    9 C                |  16 C                |  10 C                |    90.00
    9 C                |  16 C                |  11 C                |    90.00
   10 C                |  16 C                |  11 C                |    90.00
 ------------------------------------------------------------------------------
                            number of included internuclear angles:         48
 ==============================================================================




 Task  times  cpu:      167.6s     wall:      143.5s
 Summary of allocated global arrays
-----------------------------------
  No active global arrays



                         GA Statistics for process    0
                         ------------------------------

       create   destroy   get      put      acc     scatter   gather  read&inc
calls: 1959     1959     3.47e+06 6.08e+05 2.59e+06    0        0     3.97e+04 
number of processes/call 1.00e+00 1.00e+00 1.00e+00 0.00e+00 0.00e+00
bytes total:             2.64e+09 3.27e+09 1.20e+09 0.00e+00 0.00e+00 3.18e+05
bytes remote:            0.00e+00 0.00e+00 0.00e+00 0.00e+00 0.00e+00 0.00e+00
Max memory consumed for GA by this process: 209681672 bytes
MA_summarize_allocated_blocks: starting scan ...
MA_summarize_allocated_blocks: scan completed: 0 heap blocks, 0 stack blocks
MA usage statistics:

	allocation statistics:
					      heap	     stack
					      ----	     -----
	current number of blocks	         0	         0
	maximum number of blocks	        25	        36
	current total bytes		         0	         0
	maximum total bytes		     80104	 105692360
	maximum total K-bytes		        81	    105693
	maximum total M-bytes		         1	       106


                                NWChem Input Module
                                -------------------





                                     CITATION
                                     --------
                Please cite the following reference when publishing
                           results obtained with NWChem:

                 M. Valiev, E.J. Bylaska, N. Govind, K. Kowalski,
              T.P. Straatsma, H.J.J. van Dam, D. Wang, J. Nieplocha,
                        E. Apra, T.L. Windus, W.A. de Jong
                 "NWChem: a comprehensive and scalable open-source
                  solution for large scale molecular simulations"
                      Comput. Phys. Commun. 181, 1477 (2010)
                           doi:10.1016/j.cpc.2010.04.018

                                      AUTHORS
                                      -------
          E. Apra, E. J. Bylaska, W. A. de Jong, N. Govind, K. Kowalski,
       T. P. Straatsma, M. Valiev, H. J. J. van Dam, D. Wang, T. L. Windus,
        J. Hammond, J. Autschbach, K. Bhaskaran-Nair, J. Brabec, K. Lopata,
       S. A. Fischer, S. Krishnamoorthy, W. Ma, M. Klemm, O. Villa, Y. Chen,
    V. Anisimov, F. Aquino, S. Hirata, M. T. Hackler, T. Risthaus, M. Malagoli,
       A. Marenich, A. Otero-de-la-Roza, J. Mullin, P. Nichols, R. Peverati,
     J. Pittner, Y. Zhao, P.-D. Fan, A. Fonari, M. Williamson, R. J. Harrison,
       J. R. Rehr, M. Dupuis, D. Silverstein, D. M. A. Smith, J. Nieplocha,
        V. Tipparaju, M. Krishnan, B. E. Van Kuiken, A. Vazquez-Mayagoitia,
        L. Jensen, M. Swart, Q. Wu, T. Van Voorhis, A. A. Auer, M. Nooijen,
      L. D. Crosby, E. Brown, G. Cisneros, G. I. Fann, H. Fruchtl, J. Garza,
        K. Hirao, R. A. Kendall, J. A. Nichols, K. Tsemekhman, K. Wolinski,
     J. Anchell, D. E. Bernholdt, P. Borowski, T. Clark, D. Clerc, H. Dachsel,
   M. J. O. Deegan, K. Dyall, D. Elwood, E. Glendening, M. Gutowski, A. C. Hess,
         J. Jaffe, B. G. Johnson, J. Ju, R. Kobayashi, R. Kutteh, Z. Lin,
   R. Littlefield, X. Long, B. Meng, T. Nakajima, S. Niu, L. Pollack, M. Rosing,
   K. Glaesemann, G. Sandrone, M. Stave, H. Taylor, G. Thomas, J. H. van Lenthe,
                               A. T. Wong, Z. Zhang.

 Total times  cpu:      167.7s     wall:      143.6s
