 argument  1 = cubane
  Unable to open cubane --- appending .nw
                                         
                                         


             Northwest Computational Chemistry Package (NWChem) 6.1.1
             --------------------------------------------------------


                    Environmental Molecular Sciences Laboratory
                       Pacific Northwest National Laboratory
                                Richland, WA 99352

                              Copyright (c) 1994-2012
                       Pacific Northwest National Laboratory
                            Battelle Memorial Institute

             NWChem is an open-source computational chemistry package
                        distributed under the terms of the
                      Educational Community License (ECL) 2.0
             A copy of the license is included with this distribution
                              in the LICENSE.TXT file

                                  ACKNOWLEDGMENT
                                  --------------

            This software and its documentation were developed at the
            EMSL at Pacific Northwest National Laboratory, a multiprogram
            national laboratory, operated for the U.S. Department of Energy
            by Battelle under Contract Number DE-AC05-76RL01830. Support
            for this work was provided by the Department of Energy Office
            of Biological and Environmental Research, Office of Basic
            Energy Sciences, and the Office of Advanced Scientific Computing.


           Job information
           ---------------

    hostname      = kbob-G41MT-S2
    program       = nwchem
    date          = Tue Apr  2 20:55:34 2013

    compiled      = Вт._февр._12_22:37:34_2013
    source        = /opt/nwchem-6.1.1-src
    nwchem branch = 6.1.1
    input         = cubane.nw
    prefix        = cubane.
    data base     = ./cubane.db
    status        = startup
    nproc         =        2
    time left     =     -1s



           Memory information
           ------------------

    heap     =   63236801 doubles =    482.5 Mbytes
    stack    =   63236801 doubles =    482.5 Mbytes
    global   =  126473600 doubles =    964.9 Mbytes (distinct from heap & stack)
    total    =  252947202 doubles =   1929.8 Mbytes
    verify   = yes
    hardfail = no 


           Directory information
           ---------------------

  0 permanent = .
  0 scratch   = .




                                NWChem Input Module
                                -------------------


                    cubane def2-TZVP DFT geometry optimization
                    ------------------------------------------

 Scaling coordinates for geometry "geometry" by  1.889725989
 (inverse scale =  0.529177249)

 Turning off AUTOSYM since
 SYMMETRY directive was detected!


          ------
          auto-z
          ------


                             Geometry "geometry" -> ""
                             -------------------------

 Output coordinates in angstroms (scale by  1.889725989 to convert to a.u.)

  No.       Tag          Charge          X              Y              Z
 ---- ---------------- ---------- -------------- -------------- --------------
    1 H                    1.0000     1.41150317     1.41150317     1.41150317
    2 H                    1.0000    -1.41150317    -1.41150317     1.41150317
    3 H                    1.0000    -1.41150317     1.41150317    -1.41150317
    4 H                    1.0000     1.41150317    -1.41150317    -1.41150317
    5 H                    1.0000     1.41150317     1.41150317    -1.41150317
    6 H                    1.0000    -1.41150317    -1.41150317    -1.41150317
    7 H                    1.0000     1.41150317    -1.41150317     1.41150317
    8 H                    1.0000    -1.41150317     1.41150317     1.41150317
    9 C                    6.0000     0.78367213     0.78367213     0.78367213
   10 C                    6.0000    -0.78367213    -0.78367213     0.78367213
   11 C                    6.0000    -0.78367213     0.78367213    -0.78367213
   12 C                    6.0000     0.78367213    -0.78367213    -0.78367213
   13 C                    6.0000     0.78367213     0.78367213    -0.78367213
   14 C                    6.0000    -0.78367213    -0.78367213    -0.78367213
   15 C                    6.0000     0.78367213    -0.78367213     0.78367213
   16 C                    6.0000    -0.78367213     0.78367213     0.78367213

      Atomic Mass 
      ----------- 

      H                  1.007825
      C                 12.000000


 Effective nuclear repulsion energy (a.u.)     367.6103666819

            Nuclear Dipole moment (a.u.) 
            ----------------------------
        X                 Y               Z
 ---------------- ---------------- ----------------
     0.0000000000     0.0000000000     0.0000000000

      Symmetry information
      --------------------

 Group name              Oh       
 Group number             44
 Group order              48
 No. of unique centers     2

      Symmetry unique atoms

     1    9



                                Z-matrix (autoz)
                                -------- 

 Units are Angstrom for bonds and degrees for angles

      Type          Name      I     J     K     L     M      Value
      ----------- --------  ----- ----- ----- ----- ----- ----------
    1 Stretch                  1     9                       1.08744
    2 Stretch                  2    10                       1.08744
    3 Stretch                  3    11                       1.08744
    4 Stretch                  4    12                       1.08744
    5 Stretch                  5    13                       1.08744
    6 Stretch                  6    14                       1.08744
    7 Stretch                  7    15                       1.08744
    8 Stretch                  8    16                       1.08744
    9 Stretch                  9    13                       1.56734
   10 Stretch                  9    15                       1.56734
   11 Stretch                  9    16                       1.56734
   12 Stretch                 10    14                       1.56734
   13 Stretch                 10    15                       1.56734
   14 Stretch                 10    16                       1.56734
   15 Stretch                 11    13                       1.56734
   16 Stretch                 11    14                       1.56734
   17 Stretch                 11    16                       1.56734
   18 Stretch                 12    13                       1.56734
   19 Stretch                 12    14                       1.56734
   20 Stretch                 12    15                       1.56734
   21 Bend                     1     9    13               125.26439
   22 Bend                     1     9    15               125.26439
   23 Bend                     1     9    16               125.26439
   24 Bend                     2    10    14               125.26439
   25 Bend                     2    10    15               125.26439
   26 Bend                     2    10    16               125.26439
   27 Bend                     3    11    13               125.26439
   28 Bend                     3    11    14               125.26439
   29 Bend                     3    11    16               125.26439
   30 Bend                     4    12    13               125.26439
   31 Bend                     4    12    14               125.26439
   32 Bend                     4    12    15               125.26439
   33 Bend                     5    13     9               125.26439
   34 Bend                     5    13    11               125.26439
   35 Bend                     5    13    12               125.26439
   36 Bend                     6    14    10               125.26439
   37 Bend                     6    14    11               125.26439
   38 Bend                     6    14    12               125.26439
   39 Bend                     7    15     9               125.26439
   40 Bend                     7    15    10               125.26439
   41 Bend                     7    15    12               125.26439
   42 Bend                     8    16     9               125.26439
   43 Bend                     8    16    10               125.26439
   44 Bend                     8    16    11               125.26439
   45 Bend                     9    13    11                90.00000
   46 Bend                     9    13    12                90.00000
   47 Bend                     9    15    10                90.00000
   48 Bend                     9    15    12                90.00000
   49 Bend                     9    16    10                90.00000
   50 Bend                     9    16    11                90.00000
   51 Bend                    10    14    11                90.00000
   52 Bend                    10    14    12                90.00000
   53 Bend                    10    15    12                90.00000
   54 Bend                    10    16    11                90.00000
   55 Bend                    11    13    12                90.00000
   56 Bend                    11    14    12                90.00000
   57 Bend                    13     9    15                90.00000
   58 Bend                    13     9    16                90.00000
   59 Bend                    13    11    14                90.00000
   60 Bend                    13    11    16                90.00000
   61 Bend                    13    12    14                90.00000
   62 Bend                    13    12    15                90.00000
   63 Bend                    14    10    15                90.00000
   64 Bend                    14    10    16                90.00000
   65 Bend                    14    11    16                90.00000
   66 Bend                    14    12    15                90.00000
   67 Bend                    15     9    16                90.00000
   68 Bend                    15    10    16                90.00000
   69 Torsion                  1     9    13     5           0.00000
   70 Torsion                  1     9    13    11        -135.00000
   71 Torsion                  1     9    13    12         135.00000
   72 Torsion                  1     9    15     7           0.00000
   73 Torsion                  1     9    15    10         135.00000
   74 Torsion                  1     9    15    12        -135.00000
   75 Torsion                  1     9    16     8           0.00000
   76 Torsion                  1     9    16    10        -135.00000
   77 Torsion                  1     9    16    11         135.00000
   78 Torsion                  2    10    14     6           0.00000
   79 Torsion                  2    10    14    11         135.00000
   80 Torsion                  2    10    14    12        -135.00000
   81 Torsion                  2    10    15     7           0.00000
   82 Torsion                  2    10    15     9        -135.00000
   83 Torsion                  2    10    15    12         135.00000
   84 Torsion                  2    10    16     8           0.00000
   85 Torsion                  2    10    16     9         135.00000
   86 Torsion                  2    10    16    11        -135.00000
   87 Torsion                  3    11    13     5           0.00000
   88 Torsion                  3    11    13     9         135.00000
   89 Torsion                  3    11    13    12        -135.00000
   90 Torsion                  3    11    14     6           0.00000
   91 Torsion                  3    11    14    10        -135.00000
   92 Torsion                  3    11    14    12         135.00000
   93 Torsion                  3    11    16     8           0.00000
   94 Torsion                  3    11    16     9        -135.00000
   95 Torsion                  3    11    16    10         135.00000
   96 Torsion                  4    12    13     5           0.00000
   97 Torsion                  4    12    13     9        -135.00000
   98 Torsion                  4    12    13    11         135.00000
   99 Torsion                  4    12    14     6           0.00000
  100 Torsion                  4    12    14    10         135.00000
  101 Torsion                  4    12    14    11        -135.00000
  102 Torsion                  4    12    15     7           0.00000
  103 Torsion                  4    12    15     9         135.00000
  104 Torsion                  4    12    15    10        -135.00000
  105 Torsion                  5    13     9    15        -135.00000
  106 Torsion                  5    13     9    16         135.00000
  107 Torsion                  5    13    11    14         135.00000
  108 Torsion                  5    13    11    16        -135.00000
  109 Torsion                  5    13    12    14        -135.00000
  110 Torsion                  5    13    12    15         135.00000
  111 Torsion                  6    14    10    15         135.00000
  112 Torsion                  6    14    10    16        -135.00000
  113 Torsion                  6    14    11    13        -135.00000
  114 Torsion                  6    14    11    16         135.00000
  115 Torsion                  6    14    12    13         135.00000
  116 Torsion                  6    14    12    15        -135.00000
  117 Torsion                  7    15     9    13         135.00000
  118 Torsion                  7    15     9    16        -135.00000
  119 Torsion                  7    15    10    14        -135.00000
  120 Torsion                  7    15    10    16         135.00000
  121 Torsion                  7    15    12    13        -135.00000
  122 Torsion                  7    15    12    14         135.00000
  123 Torsion                  8    16     9    13        -135.00000
  124 Torsion                  8    16     9    15         135.00000
  125 Torsion                  8    16    10    14         135.00000
  126 Torsion                  8    16    10    15        -135.00000
  127 Torsion                  8    16    11    13         135.00000
  128 Torsion                  8    16    11    14        -135.00000
  129 Torsion                  9    13    11    14         -90.00000
  130 Torsion                  9    13    11    16           0.00000
  131 Torsion                  9    13    12    14          90.00000
  132 Torsion                  9    13    12    15           0.00000
  133 Torsion                  9    15    10    14          90.00000
  134 Torsion                  9    15    10    16           0.00000
  135 Torsion                  9    15    12    13           0.00000
  136 Torsion                  9    15    12    14         -90.00000
  137 Torsion                  9    16    10    14         -90.00000
  138 Torsion                  9    16    10    15           0.00000
  139 Torsion                  9    16    11    13           0.00000
  140 Torsion                  9    16    11    14          90.00000
  141 Torsion                 10    14    11    13          90.00000
  142 Torsion                 10    14    11    16           0.00000
  143 Torsion                 10    14    12    13         -90.00000
  144 Torsion                 10    14    12    15           0.00000
  145 Torsion                 10    15     9    13         -90.00000
  146 Torsion                 10    15     9    16           0.00000
  147 Torsion                 10    15    12    13          90.00000
  148 Torsion                 10    15    12    14           0.00000
  149 Torsion                 10    16     9    13          90.00000
  150 Torsion                 10    16     9    15           0.00000
  151 Torsion                 10    16    11    13         -90.00000
  152 Torsion                 10    16    11    14           0.00000
  153 Torsion                 11    13     9    15          90.00000
  154 Torsion                 11    13     9    16           0.00000
  155 Torsion                 11    13    12    14           0.00000
  156 Torsion                 11    13    12    15         -90.00000
  157 Torsion                 11    14    10    15         -90.00000
  158 Torsion                 11    14    10    16           0.00000
  159 Torsion                 11    14    12    13           0.00000
  160 Torsion                 11    14    12    15          90.00000
  161 Torsion                 11    16     9    13           0.00000
  162 Torsion                 11    16     9    15         -90.00000
  163 Torsion                 11    16    10    14           0.00000
  164 Torsion                 11    16    10    15          90.00000
  165 Torsion                 12    13     9    15           0.00000
  166 Torsion                 12    13     9    16         -90.00000
  167 Torsion                 12    13    11    14           0.00000
  168 Torsion                 12    13    11    16          90.00000
  169 Torsion                 12    14    10    15           0.00000
  170 Torsion                 12    14    10    16          90.00000
  171 Torsion                 12    14    11    13           0.00000
  172 Torsion                 12    14    11    16         -90.00000
  173 Torsion                 12    15     9    13           0.00000
  174 Torsion                 12    15     9    16          90.00000
  175 Torsion                 12    15    10    14           0.00000
  176 Torsion                 12    15    10    16         -90.00000


            XYZ format geometry
            -------------------
    16
 geometry
 H                     1.41150317     1.41150317     1.41150317
 H                    -1.41150317    -1.41150317     1.41150317
 H                    -1.41150317     1.41150317    -1.41150317
 H                     1.41150317    -1.41150317    -1.41150317
 H                     1.41150317     1.41150317    -1.41150317
 H                    -1.41150317    -1.41150317    -1.41150317
 H                     1.41150317    -1.41150317     1.41150317
 H                    -1.41150317     1.41150317     1.41150317
 C                     0.78367213     0.78367213     0.78367213
 C                    -0.78367213    -0.78367213     0.78367213
 C                    -0.78367213     0.78367213    -0.78367213
 C                     0.78367213    -0.78367213    -0.78367213
 C                     0.78367213     0.78367213    -0.78367213
 C                    -0.78367213    -0.78367213    -0.78367213
 C                     0.78367213    -0.78367213     0.78367213
 C                    -0.78367213     0.78367213     0.78367213

 ==============================================================================
                                internuclear distances
 ------------------------------------------------------------------------------
       center one      |      center two      | atomic units |  angstroms
 ------------------------------------------------------------------------------
    9 C                |   1 H                |     2.05495  |     1.08744
   10 C                |   2 H                |     2.05495  |     1.08744
   11 C                |   3 H                |     2.05495  |     1.08744
   12 C                |   4 H                |     2.05495  |     1.08744
   13 C                |   5 H                |     2.05495  |     1.08744
   13 C                |   9 C                |     2.96185  |     1.56734
   13 C                |  11 C                |     2.96185  |     1.56734
   13 C                |  12 C                |     2.96185  |     1.56734
   14 C                |   6 H                |     2.05495  |     1.08744
   14 C                |  10 C                |     2.96185  |     1.56734
   14 C                |  11 C                |     2.96185  |     1.56734
   14 C                |  12 C                |     2.96185  |     1.56734
   15 C                |   7 H                |     2.05495  |     1.08744
   15 C                |   9 C                |     2.96185  |     1.56734
   15 C                |  10 C                |     2.96185  |     1.56734
   15 C                |  12 C                |     2.96185  |     1.56734
   16 C                |   8 H                |     2.05495  |     1.08744
   16 C                |   9 C                |     2.96185  |     1.56734
   16 C                |  10 C                |     2.96185  |     1.56734
   16 C                |  11 C                |     2.96185  |     1.56734
 ------------------------------------------------------------------------------
                         number of included internuclear distances:         20
 ==============================================================================



 ==============================================================================
                                 internuclear angles
 ------------------------------------------------------------------------------
        center 1       |       center 2       |       center 3       |  degrees
 ------------------------------------------------------------------------------
    1 H                |   9 C                |  13 C                |   125.26
    1 H                |   9 C                |  15 C                |   125.26
    1 H                |   9 C                |  16 C                |   125.26
   13 C                |   9 C                |  15 C                |    90.00
   13 C                |   9 C                |  16 C                |    90.00
   15 C                |   9 C                |  16 C                |    90.00
    2 H                |  10 C                |  14 C                |   125.26
    2 H                |  10 C                |  15 C                |   125.26
    2 H                |  10 C                |  16 C                |   125.26
   14 C                |  10 C                |  15 C                |    90.00
   14 C                |  10 C                |  16 C                |    90.00
   15 C                |  10 C                |  16 C                |    90.00
    3 H                |  11 C                |  13 C                |   125.26
    3 H                |  11 C                |  14 C                |   125.26
    3 H                |  11 C                |  16 C                |   125.26
   13 C                |  11 C                |  14 C                |    90.00
   13 C                |  11 C                |  16 C                |    90.00
   14 C                |  11 C                |  16 C                |    90.00
    4 H                |  12 C                |  13 C                |   125.26
    4 H                |  12 C                |  14 C                |   125.26
    4 H                |  12 C                |  15 C                |   125.26
   13 C                |  12 C                |  14 C                |    90.00
   13 C                |  12 C                |  15 C                |    90.00
   14 C                |  12 C                |  15 C                |    90.00
    5 H                |  13 C                |   9 C                |   125.26
    5 H                |  13 C                |  11 C                |   125.26
    5 H                |  13 C                |  12 C                |   125.26
    9 C                |  13 C                |  11 C                |    90.00
    9 C                |  13 C                |  12 C                |    90.00
   11 C                |  13 C                |  12 C                |    90.00
    6 H                |  14 C                |  10 C                |   125.26
    6 H                |  14 C                |  11 C                |   125.26
    6 H                |  14 C                |  12 C                |   125.26
   10 C                |  14 C                |  11 C                |    90.00
   10 C                |  14 C                |  12 C                |    90.00
   11 C                |  14 C                |  12 C                |    90.00
    7 H                |  15 C                |   9 C                |   125.26
    7 H                |  15 C                |  10 C                |   125.26
    7 H                |  15 C                |  12 C                |   125.26
    9 C                |  15 C                |  10 C                |    90.00
    9 C                |  15 C                |  12 C                |    90.00
   10 C                |  15 C                |  12 C                |    90.00
    8 H                |  16 C                |   9 C                |   125.26
    8 H                |  16 C                |  10 C                |   125.26
    8 H                |  16 C                |  11 C                |   125.26
    9 C                |  16 C                |  10 C                |    90.00
    9 C                |  16 C                |  11 C                |    90.00
   10 C                |  16 C                |  11 C                |    90.00
 ------------------------------------------------------------------------------
                            number of included internuclear angles:         48
 ==============================================================================



                      Basis "ao basis" -> "" (cartesian)
                      -----
  H (Hydrogen)
  ------------
            Exponent  Coefficients 
       -------------- ---------------------------------------------------------
  1 S  3.40613410E+01  0.006025
  1 S  5.12357460E+00  0.045021
  1 S  1.16466260E+00  0.201897

  2 S  3.27230410E-01  1.000000

  3 S  1.03072410E-01  1.000000

  4 P  8.00000000E-01  1.000000

  C (Carbon)
  ----------
            Exponent  Coefficients 
       -------------- ---------------------------------------------------------
  1 S  1.35753497E+04  0.000222
  1 S  2.03523337E+03  0.001723
  1 S  4.63225624E+02  0.008926
  1 S  1.31200196E+02  0.035728
  1 S  4.28530159E+01  0.110763
  1 S  1.55841858E+01  0.242956

  2 S  6.20671385E+00  0.414403
  2 S  2.57648965E+00  0.237450

  3 S  5.76963394E-01  1.000000

  4 S  2.29728314E-01  1.000000

  5 S  9.51644400E-02  1.000000

  6 P  3.46972322E+01  0.005333
  6 P  7.95826228E+00  0.035864
  6 P  2.37808269E+00  0.142159
  6 P  8.14332082E-01  0.342705

  7 P  2.88875473E-01  1.000000

  8 P  1.00568237E-01  1.000000

  9 D  1.09700000E+00  1.000000

 10 D  3.18000000E-01  1.000000

 11 F  7.61000000E-01  1.000000



 Summary of "ao basis" -> "" (cartesian)
 ------------------------------------------------------------------------------
       Tag                 Description            Shells   Functions and Types
 ---------------- ------------------------------  ------  ---------------------
 H                         def2-TZVP                 4        6   3s1p
 C                         def2-TZVP                11       36   5s3p2d1f




                           NWChem Geometry Optimization
                           ----------------------------




                    cubane def2-TZVP DFT geometry optimization


 maximum gradient threshold         (gmax) =   0.000450
 rms gradient threshold             (grms) =   0.000300
 maximum cartesian step threshold   (xmax) =   0.001800
 rms cartesian step threshold       (xrms) =   0.001200
 fixed trust radius                (trust) =   0.300000
 maximum step size to saddle      (sadstp) =   0.100000
 energy precision                  (eprec) =   5.0D-06
 maximum number of steps          (nptopt) =   20
 initial hessian option           (inhess) =    0
 line search option               (linopt) =    1
 hessian update option            (modupd) =    1
 saddle point option              (modsad) =    0
 initial eigen-mode to follow     (moddir) =    0
 initial variable to follow       (vardir) =    0
 follow first negative mode     (firstneg) =    T
 apply conjugacy                    (opcg) =    F
 source of zmatrix                         =   autoz   


          -------------------
          Energy Minimization
          -------------------


 Names of Z-matrix variables 
    1              2              3              4              5         
    6              7              8              9             10         
   11             12             13             14             15         
   16             17             18             19             20         
   21             22             23             24             25         
   26             27             28             29             30         
   31             32             33             34             35         
   36             37             38             39             40         
   41             42             43             44             45         
   46             47             48             49             50         
   51             52             53             54             55         
   56             57             58             59             60         
   61             62             63             64             65         
   66             67             68             69             70         
   71             72             73             74             75         
   76             77             78             79             80         
   81             82             83             84             85         
   86             87             88             89             90         
   91             92             93             94             95         
   96             97             98             99            100         
  101            102            103            104            105         
  106            107            108            109            110         
  111            112            113            114            115         
  116            117            118            119            120         
  121            122            123            124            125         
  126            127            128            129            130         
  131            132            133            134            135         
  136            137            138            139            140         
  141            142            143            144            145         
  146            147            148            149            150         
  151            152            153            154            155         
  156            157            158            159            160         
  161            162            163            164            165         
  166            167            168            169            170         
  171            172            173            174            175         
  176         

 Variables with the same non-blank name are constrained to be equal


 Using diagonal initial Hessian 
 Scaling for Hessian diagonals: bonds = 1.00  angles = 0.25  torsions = 0.10

          --------
          Step   0
          --------


                         Geometry "geometry" -> "geometry"
                         ---------------------------------

 Output coordinates in angstroms (scale by  1.889725989 to convert to a.u.)

  No.       Tag          Charge          X              Y              Z
 ---- ---------------- ---------- -------------- -------------- --------------
    1 H                    1.0000     1.41150317     1.41150317     1.41150317
    2 H                    1.0000    -1.41150317    -1.41150317     1.41150317
    3 H                    1.0000    -1.41150317     1.41150317    -1.41150317
    4 H                    1.0000     1.41150317    -1.41150317    -1.41150317
    5 H                    1.0000     1.41150317     1.41150317    -1.41150317
    6 H                    1.0000    -1.41150317    -1.41150317    -1.41150317
    7 H                    1.0000     1.41150317    -1.41150317     1.41150317
    8 H                    1.0000    -1.41150317     1.41150317     1.41150317
    9 C                    6.0000     0.78367213     0.78367213     0.78367213
   10 C                    6.0000    -0.78367213    -0.78367213     0.78367213
   11 C                    6.0000    -0.78367213     0.78367213    -0.78367213
   12 C                    6.0000     0.78367213    -0.78367213    -0.78367213
   13 C                    6.0000     0.78367213     0.78367213    -0.78367213
   14 C                    6.0000    -0.78367213    -0.78367213    -0.78367213
   15 C                    6.0000     0.78367213    -0.78367213     0.78367213
   16 C                    6.0000    -0.78367213     0.78367213     0.78367213

      Atomic Mass 
      ----------- 

      H                  1.007825
      C                 12.000000


 Effective nuclear repulsion energy (a.u.)     367.6103666819

            Nuclear Dipole moment (a.u.) 
            ----------------------------
        X                 Y               Z
 ---------------- ---------------- ----------------
     0.0000000000     0.0000000000     0.0000000000

      Symmetry information
      --------------------

 Group name              Oh       
 Group number             44
 Group order              48
 No. of unique centers     2

      Symmetry unique atoms

     1    9


                                 NWChem DFT Module
                                 -----------------


                    cubane def2-TZVP DFT geometry optimization


  Caching 1-el integrals 

            General Information
            -------------------
          SCF calculation type: DFT
          Wavefunction type:  closed shell.
          No. of atoms     :    16
          No. of electrons :    56
           Alpha electrons :    28
            Beta electrons :    28
          Charge           :     0
          Spin multiplicity:     1
          Use of symmetry is: on ; symmetry adaption is: on 
          Maximum number of iterations:  30
          AO basis - number of functions:   336
                     number of shells:   120
          Convergence on energy requested: 1.00D-06
          Convergence on density requested: 1.00D-05
          Convergence on gradient requested: 5.00D-04

              XC Information
              --------------
                         B3LYP Method XC Potential
                     Hartree-Fock (Exact) Exchange  0.200          
                        Slater Exchange Functional  0.800 local    
                    Becke 1988 Exchange Functional  0.720 non-local
              Lee-Yang-Parr Correlation Functional  0.810          
                  VWN I RPA Correlation Functional  0.190 local    

             Grid Information
             ----------------
          Grid used for XC integration:  medium    
          Radial quadrature: Mura-Knowles        
          Angular quadrature: Lebedev. 
          Tag              B.-S. Rad. Rad. Pts. Rad. Cut. Ang. Pts.
          ---              ---------- --------- --------- ---------
          H                   0.35       45          12.0       434
          C                   0.70       49          11.0       434
          Grid pruning is: on 
          Number of quadrature shells:    94
          Spatial weights used:  Erf1

          Convergence Information
          -----------------------
          Convergence aids based upon iterative change in 
          total energy or number of iterations. 
          Levelshifting, if invoked, occurs when the 
          HOMO/LUMO gap drops below (HL_TOL): 1.00D-02
          DIIS, if invoked, will attempt to extrapolate 
          using up to (NFOCK): 10 stored Fock matrices.

                    Damping( 0%)  Levelshifting(0.5)       DIIS
                  --------------- ------------------- ---------------
          dE  on:    start            ASAP                start   
          dE off:    2 iters         30 iters            30 iters 


      Screening Tolerance Information
      -------------------------------
          Density screening/tol_rho: 1.00D-10
          AO Gaussian exp screening on grid/accAOfunc:  14
          CD Gaussian exp screening on grid/accCDfunc:  20
          XC Gaussian exp screening on grid/accXCfunc:  20
          Schwarz screening/accCoul: 1.00D-08


 WARNING : Found     1 linear dependencies 
 S eigenvalue threshold:     1.00000E-05
 Smallest S eigenvalue :     3.98892E-07
 Largest  S eigenvalue :     3.98892E-07


 !! The overlap matrix has   1 vectors deemed linearly dependent with
    eigenvalues:
 3.99D-07


      Superposition of Atomic Density Guess
      -------------------------------------

 Sum of atomic energies:        -305.36909921

      Non-variational initial energy
      ------------------------------

 Total energy =    -311.920034
 1-e energy   =   -1138.040420
 2-e energy   =     458.510020
 HOMO         =      -0.296057
 LUMO         =       0.036704


      Symmetry analysis of molecular orbitals - initial
      -------------------------------------------------

  Numbering of irreducible representations: 

     1 a1g         2 a1u         3 a2g         4 a2u         5 eg      
     6 eu          7 t1g         8 t1u         9 t2g        10 t2u     

  Orbital symmetries:

     1 a1g         2 t1u         3 t1u         4 t1u         5 t2g     
     6 t2g         7 t2g         8 a2u         9 a1g        10 t1u     
    11 t1u        12 t1u        13 t2g        14 t2g        15 t2g     
    16 a1g        17 a2u        18 eg         19 eg         20 t1u     
    21 t1u        22 t1u        23 t2u        24 t2u        25 t2u     
    26 t2g        27 t2g        28 t2g        29 t1u        30 t1u     
    31 t1u        32 a1g        33 t2g        34 t2g        35 t2g     
    36 t1u        37 t1u        38 t1u     

   Time after variat. SCF:     10.5
   Time prior to 1st pass:     10.5

 Integral file          = ./cubane.aoints.0
 Record size in doubles =  65536        No. of integs per rec  =  32766
 Max. records in memory =    668        Max. records in file   = 100463
 No. of bits per label  =     16        No. of bits per value  =     64


 #quartets = 8.979D+05 #integrals = 5.636D+07 #direct =  0.0% #cached =100.0%


File balance: exchanges=     1  moved=   141  time=   1.2


 Grid_pts file          = ./cubane.gridpts.0
 Record size in doubles =  12289        No. of grid_pts per rec  =   3070
 Max. records in memory =      9        Max. recs in file   =    534794

 Grid integrated density:      55.986206325526
 Requested integration accuracy:   0.10E-05

           Memory utilization after 1st SCF pass: 
           Heap Space remaining (MW):       19.32            19324991
          Stack Space remaining (MW):       63.23            63234713

   convergence    iter        energy       DeltaE   RMS-Dens  Diis-err    time
 ---------------- ----- ----------------- --------- --------- ---------  ------
 d= 0,ls=0.0,diis     1   -309.4752449608 -6.77D+02  3.76D-03  1.41D+00    20.8
 Grid integrated density:      56.000307202304
 Requested integration accuracy:   0.10E-05
 d= 0,ls=0.0,diis     2   -309.5640863164 -8.88D-02  1.27D-03  3.73D-02    25.0
 Grid integrated density:      56.000323577794
 Requested integration accuracy:   0.10E-05
 d= 0,ls=0.0,diis     3   -309.5630886656  9.98D-04  6.33D-04  4.56D-02    29.3
 Grid integrated density:      56.000316481844
 Requested integration accuracy:   0.10E-05
 d= 0,ls=0.0,diis     4   -309.5677646913 -4.68D-03  1.35D-04  1.59D-03    33.4
 Grid integrated density:      56.000316518037
 Requested integration accuracy:   0.10E-05
 d= 0,ls=0.0,diis     5   -309.5679631586 -1.98D-04  1.77D-05  2.01D-05    37.8
 Grid integrated density:      56.000316577179
 Requested integration accuracy:   0.10E-05
 d= 0,ls=0.0,diis     6   -309.5679659654 -2.81D-06  1.21D-06  6.83D-08    42.3
 Grid integrated density:      56.000316569121
 Requested integration accuracy:   0.10E-05
 d= 0,ls=0.0,diis     7   -309.5679659746 -9.21D-09  1.10D-07  2.00D-10    46.9


         Total DFT energy =     -309.567965974635
      One electron energy =    -1145.419282683761
           Coulomb energy =      514.713007231519
    Exchange-Corr. energy =      -46.472057204268
 Nuclear repulsion energy =      367.610366681874

 Numeric. integr. density =       56.000316569121

     Total iterative time =     36.4s



                  Occupations of the irreducible representations
                  ----------------------------------------------

                     irrep           alpha         beta
                     --------     --------     --------
                     a1g               3.0          3.0
                     a1u               0.0          0.0
                     a2g               0.0          0.0
                     a2u               2.0          2.0
                     eg                2.0          2.0
                     eu                0.0          0.0
                     t1g               0.0          0.0
                     t1u               9.0          9.0
                     t2g               9.0          9.0
                     t2u               3.0          3.0


                       DFT Final Molecular Orbital Analysis
                       ------------------------------------

 Vector    8  Occ=2.000000D+00  E=-1.017344D+01  Symmetry=a2u
              MO Center= -4.8D-12,  8.1D-12,  8.9D-12, r^2= 1.9D+00
   Bfn.  Coefficient  Atom+Function         Bfn.  Coefficient  Atom+Function  
  ----- ------------  ---------------      ----- ------------  ---------------
    50     -0.212673   9 C  s                86     -0.212673  10 C  s         
   122     -0.212673  11 C  s               158     -0.212673  12 C  s         
   194      0.212673  13 C  s               230      0.212673  14 C  s         
   266      0.212673  15 C  s               302      0.212673  16 C  s         
    49     -0.165398   9 C  s                85     -0.165398  10 C  s         

 Vector    9  Occ=2.000000D+00  E=-9.440127D-01  Symmetry=a1g
              MO Center= -5.1D-16, -1.1D-15, -4.2D-16, r^2= 1.6D+00
   Bfn.  Coefficient  Atom+Function         Bfn.  Coefficient  Atom+Function  
  ----- ------------  ---------------      ----- ------------  ---------------
    52      0.109871   9 C  s                88      0.109871  10 C  s         
   124      0.109871  11 C  s               160      0.109871  12 C  s         
   196      0.109871  13 C  s               232      0.109871  14 C  s         
   268      0.109871  15 C  s               304      0.109871  16 C  s         
    51      0.103672   9 C  s                87      0.103672  10 C  s         

 Vector   10  Occ=2.000000D+00  E=-7.252916D-01  Symmetry=t1u
              MO Center= -6.2D-17,  5.7D-16,  3.6D-16, r^2= 2.6D+00
   Bfn.  Coefficient  Atom+Function         Bfn.  Coefficient  Atom+Function  
  ----- ------------  ---------------      ----- ------------  ---------------
   160     -0.184068  12 C  s               304      0.184068  16 C  s         
   159     -0.161370  12 C  s               303      0.161370  16 C  s         
    52      0.158727   9 C  s               232     -0.158727  14 C  s         

 Vector   11  Occ=2.000000D+00  E=-7.252916D-01  Symmetry=t1u
              MO Center=  1.1D-14,  4.7D-15, -1.6D-15, r^2= 2.6D+00
   Bfn.  Coefficient  Atom+Function         Bfn.  Coefficient  Atom+Function  
  ----- ------------  ---------------      ----- ------------  ---------------
   124     -0.191163  11 C  s               268      0.191163  15 C  s         
   123     -0.167590  11 C  s               267      0.167590  15 C  s         

 Vector   12  Occ=2.000000D+00  E=-7.252916D-01  Symmetry=t1u
              MO Center=  5.0D-16, -8.7D-18, -1.4D-17, r^2= 2.6D+00
   Bfn.  Coefficient  Atom+Function         Bfn.  Coefficient  Atom+Function  
  ----- ------------  ---------------      ----- ------------  ---------------
    88     -0.165919  10 C  s               196      0.165919  13 C  s         

 Vector   13  Occ=2.000000D+00  E=-5.597127D-01  Symmetry=t2g
              MO Center= -3.2D-15, -5.1D-15,  1.8D-15, r^2= 4.1D+00
   Bfn.  Coefficient  Atom+Function         Bfn.  Coefficient  Atom+Function  
  ----- ------------  ---------------      ----- ------------  ---------------
    88      0.234499  10 C  s               196      0.234499  13 C  s         
    87      0.170964  10 C  s               195      0.170964  13 C  s         

 Vector   14  Occ=2.000000D+00  E=-5.597127D-01  Symmetry=t2g
              MO Center= -1.1D-14, -3.8D-15, -3.9D-15, r^2= 4.1D+00
   Bfn.  Coefficient  Atom+Function         Bfn.  Coefficient  Atom+Function  
  ----- ------------  ---------------      ----- ------------  ---------------
    52      0.211528   9 C  s               232      0.211528  14 C  s         
   124     -0.156586  11 C  s               268     -0.156586  15 C  s         
    51      0.154217   9 C  s               231      0.154217  14 C  s         

 Vector   15  Occ=2.000000D+00  E=-5.597127D-01  Symmetry=t2g
              MO Center= -9.5D-15,  4.0D-15, -3.3D-15, r^2= 4.1D+00
   Bfn.  Coefficient  Atom+Function         Bfn.  Coefficient  Atom+Function  
  ----- ------------  ---------------      ----- ------------  ---------------
   124      0.206691  11 C  s               268      0.206691  15 C  s         
   160     -0.188054  12 C  s               304     -0.188054  16 C  s         
   123      0.150691  11 C  s               267      0.150691  15 C  s         

 Vector   16  Occ=2.000000D+00  E=-5.337711D-01  Symmetry=a1g
              MO Center=  3.6D-16, -1.6D-15,  2.6D-15, r^2= 4.3D+00
   Bfn.  Coefficient  Atom+Function         Bfn.  Coefficient  Atom+Function  
  ----- ------------  ---------------      ----- ------------  ---------------
     2      0.079201   1 H  s                 8      0.079201   2 H  s         
    14      0.079201   3 H  s                20      0.079201   4 H  s         
    26      0.079201   5 H  s                32      0.079201   6 H  s         
    38      0.079201   7 H  s                44      0.079201   8 H  s         

 Vector   17  Occ=2.000000D+00  E=-4.652383D-01  Symmetry=a2u
              MO Center=  4.8D-16,  1.0D-16,  1.2D-15, r^2= 5.1D+00
   Bfn.  Coefficient  Atom+Function         Bfn.  Coefficient  Atom+Function  
  ----- ------------  ---------------      ----- ------------  ---------------
    52      0.149011   9 C  s                88      0.149011  10 C  s         
   124      0.149011  11 C  s               160      0.149011  12 C  s         
   196     -0.149011  13 C  s               232     -0.149011  14 C  s         
   268     -0.149011  15 C  s               304     -0.149011  16 C  s         

 Vector   18  Occ=2.000000D+00  E=-4.342843D-01  Symmetry=eg
              MO Center=  4.2D-15,  2.0D-14,  5.7D-15, r^2= 2.6D+00
   Bfn.  Coefficient  Atom+Function         Bfn.  Coefficient  Atom+Function  
  ----- ------------  ---------------      ----- ------------  ---------------
    54      0.119896   9 C  px               90     -0.119896  10 C  px        
   126     -0.119896  11 C  px              162      0.119896  12 C  px        
   198      0.119896  13 C  px              234     -0.119896  14 C  px        
   270      0.119896  15 C  px              306     -0.119896  16 C  px        

 Vector   19  Occ=2.000000D+00  E=-4.342843D-01  Symmetry=eg
              MO Center=  1.1D-16, -5.9D-16, -1.7D-15, r^2= 2.6D+00
   Bfn.  Coefficient  Atom+Function         Bfn.  Coefficient  Atom+Function  
  ----- ------------  ---------------      ----- ------------  ---------------
    56     -0.121384   9 C  pz               92     -0.121384  10 C  pz        
   128      0.121384  11 C  pz              164      0.121384  12 C  pz        
   200      0.121384  13 C  pz              236      0.121384  14 C  pz        
   272     -0.121384  15 C  pz              308     -0.121384  16 C  pz        

 Vector   20  Occ=2.000000D+00  E=-4.262182D-01  Symmetry=t1u
              MO Center= -8.8D-15, -2.3D-14,  1.1D-16, r^2= 4.2D+00
   Bfn.  Coefficient  Atom+Function         Bfn.  Coefficient  Atom+Function  
  ----- ------------  ---------------      ----- ------------  ---------------
    20      0.147301   4 H  s                44     -0.147301   8 H  s         
   164     -0.134874  12 C  pz              308     -0.134874  16 C  pz        

 Vector   21  Occ=2.000000D+00  E=-4.262182D-01  Symmetry=t1u
              MO Center=  2.0D-14, -2.7D-16,  9.3D-16, r^2= 4.2D+00
   Bfn.  Coefficient  Atom+Function         Bfn.  Coefficient  Atom+Function  
  ----- ------------  ---------------      ----- ------------  ---------------
     2      0.152597   1 H  s                32     -0.152597   6 H  s         

 Vector   22  Occ=2.000000D+00  E=-4.262182D-01  Symmetry=t1u
              MO Center= -3.4D-15,  3.1D-15, -2.1D-15, r^2= 4.2D+00
   Bfn.  Coefficient  Atom+Function         Bfn.  Coefficient  Atom+Function  
  ----- ------------  ---------------      ----- ------------  ---------------
     8      0.134012   2 H  s                26     -0.134012   5 H  s         
    90     -0.123636  10 C  px              198     -0.123636  13 C  px        

 Vector   23  Occ=2.000000D+00  E=-2.758482D-01  Symmetry=t2u
              MO Center= -2.3D-15,  2.1D-14, -2.3D-14, r^2= 2.9D+00
   Bfn.  Coefficient  Atom+Function         Bfn.  Coefficient  Atom+Function  
  ----- ------------  ---------------      ----- ------------  ---------------
   128     -0.157354  11 C  pz              164      0.157354  12 C  pz        
   272     -0.157354  15 C  pz              308      0.157354  16 C  pz        

 Vector   24  Occ=2.000000D+00  E=-2.758482D-01  Symmetry=t2u
              MO Center= -7.0D-15, -3.1D-14, -1.8D-14, r^2= 2.9D+00
   Bfn.  Coefficient  Atom+Function         Bfn.  Coefficient  Atom+Function  
  ----- ------------  ---------------      ----- ------------  ---------------
    54     -0.167451   9 C  px              162      0.167451  12 C  px        
   234     -0.167451  14 C  px              306      0.167451  16 C  px        

 Vector   25  Occ=2.000000D+00  E=-2.758482D-01  Symmetry=t2u
              MO Center= -4.7D-16,  5.0D-16, -5.6D-16, r^2= 2.9D+00
   Bfn.  Coefficient  Atom+Function         Bfn.  Coefficient  Atom+Function  
  ----- ------------  ---------------      ----- ------------  ---------------
    56      0.159464   9 C  pz               92     -0.159464  10 C  pz        
   200     -0.159464  13 C  pz              236      0.159464  14 C  pz        

 Vector   26  Occ=2.000000D+00  E=-2.635760D-01  Symmetry=t2g
              MO Center= -1.0D-14,  1.4D-14,  6.7D-15, r^2= 3.5D+00
   Bfn.  Coefficient  Atom+Function         Bfn.  Coefficient  Atom+Function  
  ----- ------------  ---------------      ----- ------------  ---------------
    52      0.209176   9 C  s               232      0.209176  14 C  s         

 Vector   27  Occ=2.000000D+00  E=-2.635760D-01  Symmetry=t2g
              MO Center=  5.3D-15, -7.0D-15,  3.4D-15, r^2= 3.5D+00
   Bfn.  Coefficient  Atom+Function         Bfn.  Coefficient  Atom+Function  
  ----- ------------  ---------------      ----- ------------  ---------------
    88      0.198860  10 C  s               196      0.198860  13 C  s         

 Vector   28  Occ=2.000000D+00  E=-2.635760D-01  Symmetry=t2g
              MO Center=  1.1D-14,  3.7D-15,  3.2D-14, r^2= 3.5D+00
   Bfn.  Coefficient  Atom+Function         Bfn.  Coefficient  Atom+Function  
  ----- ------------  ---------------      ----- ------------  ---------------
   160      0.174294  12 C  s               304      0.174294  16 C  s         
   124     -0.163141  11 C  s               268     -0.163141  15 C  s         
   163      0.153642  12 C  py              307     -0.153642  16 C  py        
   127      0.152732  11 C  py              271     -0.152732  15 C  py        

 Vector   29  Occ=0.000000D+00  E= 3.866279D-02  Symmetry=t1u
              MO Center= -1.5D-15,  1.6D-16, -2.1D-15, r^2= 6.7D+00
   Bfn.  Coefficient  Atom+Function         Bfn.  Coefficient  Atom+Function  
  ----- ------------  ---------------      ----- ------------  ---------------
    53      2.275469   9 C  s               233     -2.275469  14 C  s         
    89     -2.097474  10 C  s               197      2.097474  13 C  s         
   133     -0.617786  11 C  py              169     -0.616364  12 C  py        
   277     -0.617786  15 C  py              313     -0.616364  16 C  py        
    61     -0.601654   9 C  py               97     -0.603075  10 C  py        

 Vector   30  Occ=0.000000D+00  E= 3.866279D-02  Symmetry=t1u
              MO Center=  1.0D-15,  7.8D-16, -1.7D-15, r^2= 6.7D+00
   Bfn.  Coefficient  Atom+Function         Bfn.  Coefficient  Atom+Function  
  ----- ------------  ---------------      ----- ------------  ---------------
    89      1.677326  10 C  s               197     -1.677326  13 C  s         
   125     -1.655067  11 C  s               269      1.655067  15 C  s         
   161     -1.473477  12 C  s               305      1.473477  16 C  s         
    53      1.451218   9 C  s               233     -1.451218  14 C  s         
    62     -0.754693   9 C  pz               98     -0.752887  10 C  pz        

 Vector   31  Occ=0.000000D+00  E= 3.866279D-02  Symmetry=t1u
              MO Center= -4.0D-14,  1.7D-13, -4.4D-14, r^2= 6.7D+00
   Bfn.  Coefficient  Atom+Function         Bfn.  Coefficient  Atom+Function  
  ----- ------------  ---------------      ----- ------------  ---------------
   161     -2.239118  12 C  s               305      2.239118  16 C  s         
   125      2.137298  11 C  s               269     -2.137298  15 C  s         
    60      0.618954   9 C  px               96      0.618141  10 C  px        
   204      0.618141  13 C  px              240      0.618954  14 C  px        
   132      0.604264  11 C  px              168      0.603451  12 C  px        

 Vector   32  Occ=0.000000D+00  E= 4.505109D-02  Symmetry=a1g
              MO Center= -2.6D-13, -1.1D-14,  1.3D-13, r^2= 1.1D+01
   Bfn.  Coefficient  Atom+Function         Bfn.  Coefficient  Atom+Function  
  ----- ------------  ---------------      ----- ------------  ---------------
     3      1.030702   1 H  s                 9      1.030702   2 H  s         
    15      1.030702   3 H  s                21      1.030702   4 H  s         
    27      1.030702   5 H  s                33      1.030702   6 H  s         
    39      1.030702   7 H  s                45      1.030702   8 H  s         
    53     -0.571380   9 C  s                89     -0.571380  10 C  s         

 Vector   33  Occ=0.000000D+00  E= 9.874336D-02  Symmetry=t2g
              MO Center=  4.2D-14, -3.1D-14, -8.9D-15, r^2= 1.2D+01
   Bfn.  Coefficient  Atom+Function         Bfn.  Coefficient  Atom+Function  
  ----- ------------  ---------------      ----- ------------  ---------------
    53      3.567633   9 C  s               233      3.567633  14 C  s         
   161     -3.038545  12 C  s               305     -3.038545  16 C  s         
     3     -2.341149   1 H  s                33     -2.341149   6 H  s         
    21      1.993952   4 H  s                45      1.993952   8 H  s         
    89     -1.388444  10 C  s               197     -1.388444  13 C  s         

 Vector   34  Occ=0.000000D+00  E= 9.874336D-02  Symmetry=t2g
              MO Center= -1.8D-12, -3.6D-12, -1.2D-12, r^2= 1.2D+01
   Bfn.  Coefficient  Atom+Function         Bfn.  Coefficient  Atom+Function  
  ----- ------------  ---------------      ----- ------------  ---------------
   125      4.201731  11 C  s               269      4.201731  15 C  s         
    15     -2.757257   3 H  s                39     -2.757257   7 H  s         
    53     -2.121226   9 C  s               233     -2.121226  14 C  s         
    89     -1.433086  10 C  s               197     -1.433086  13 C  s         
     3      1.391989   1 H  s                33      1.391989   6 H  s         

 Vector   35  Occ=0.000000D+00  E= 9.874336D-02  Symmetry=t2g
              MO Center= -4.5D-14,  2.8D-12,  5.0D-13, r^2= 1.2D+01
   Bfn.  Coefficient  Atom+Function         Bfn.  Coefficient  Atom+Function  
  ----- ------------  ---------------      ----- ------------  ---------------
    89      3.806410  10 C  s               197      3.806410  13 C  s         
   161     -2.969573  12 C  s               305     -2.969573  16 C  s         
     9     -2.497840   2 H  s                27     -2.497840   5 H  s         
    21      1.948691   4 H  s                45      1.948691   8 H  s         
    53     -1.114751   9 C  s               233     -1.114751  14 C  s         

 Vector   36  Occ=0.000000D+00  E= 1.022309D-01  Symmetry=t1u
              MO Center=  6.0D-13,  4.1D-12,  3.9D-13, r^2= 1.1D+01
   Bfn.  Coefficient  Atom+Function         Bfn.  Coefficient  Atom+Function  
  ----- ------------  ---------------      ----- ------------  ---------------
     3      2.453310   1 H  s                33     -2.453310   6 H  s         
    62     -0.972490   9 C  pz              242     -0.972490  14 C  pz        
    15     -0.945282   3 H  s                39      0.945282   7 H  s         
    60     -0.945306   9 C  px               61     -0.944759   9 C  py        
   240     -0.945306  14 C  px              241     -0.944759  14 C  py        

 Vector   37  Occ=0.000000D+00  E= 1.022309D-01  Symmetry=t1u
              MO Center=  1.3D-12, -1.7D-12, -1.5D-12, r^2= 1.1D+01
   Bfn.  Coefficient  Atom+Function         Bfn.  Coefficient  Atom+Function  
  ----- ------------  ---------------      ----- ------------  ---------------
    21      2.087408   4 H  s                45     -2.087408   8 H  s         
    15     -1.931461   3 H  s                39      1.931461   7 H  s         
   168     -0.864360  12 C  px              312     -0.864360  16 C  px        
   169      0.850727  12 C  py              313      0.850727  16 C  py        
   132     -0.811392  11 C  px              276     -0.811392  15 C  px        

 Vector   38  Occ=0.000000D+00  E= 1.022309D-01  Symmetry=t1u
              MO Center=  2.1D-14, -7.8D-13,  4.4D-13, r^2= 1.1D+01
   Bfn.  Coefficient  Atom+Function         Bfn.  Coefficient  Atom+Function  
  ----- ------------  ---------------      ----- ------------  ---------------
     9      2.394516   2 H  s                27     -2.394516   5 H  s         
    15     -1.209808   3 H  s                39      1.209808   7 H  s         
    98     -0.970931  10 C  pz              206     -0.970931  13 C  pz        
    21     -0.922409   4 H  s                45      0.922409   8 H  s         
    97      0.922134  10 C  py              205      0.922134  13 C  py        

 Vector   39  Occ=0.000000D+00  E= 1.250031D-01  Symmetry=a2u
              MO Center= -1.8D-13, -6.6D-13,  1.5D-12, r^2= 1.4D+01
   Bfn.  Coefficient  Atom+Function         Bfn.  Coefficient  Atom+Function  
  ----- ------------  ---------------      ----- ------------  ---------------
     3      2.176952   1 H  s                 9      2.176952   2 H  s         
    15      2.176952   3 H  s                21      2.176952   4 H  s         
    27     -2.176952   5 H  s                33     -2.176952   6 H  s         
    39     -2.176952   7 H  s                45     -2.176952   8 H  s         
    60     -1.074869   9 C  px               61     -1.074869   9 C  py        

 Vector   40  Occ=0.000000D+00  E= 1.712729D-01  Symmetry=eg
              MO Center= -1.9D-14, -5.4D-15, -1.1D-14, r^2= 7.8D+00
   Bfn.  Coefficient  Atom+Function         Bfn.  Coefficient  Atom+Function  
  ----- ------------  ---------------      ----- ------------  ---------------
    62      0.331553   9 C  pz               98      0.331553  10 C  pz        
   134     -0.331553  11 C  pz              170     -0.331553  12 C  pz        
   206     -0.331553  13 C  pz              242     -0.331553  14 C  pz        
   278      0.331553  15 C  pz              314      0.331553  16 C  pz        
    59     -0.269058   9 C  pz               95     -0.269058  10 C  pz        

 Vector   41  Occ=0.000000D+00  E= 1.712729D-01  Symmetry=eg
              MO Center= -1.2D-14, -8.3D-15,  0.0D+00, r^2= 7.8D+00
   Bfn.  Coefficient  Atom+Function         Bfn.  Coefficient  Atom+Function  
  ----- ------------  ---------------      ----- ------------  ---------------
    61      0.293905   9 C  py               97     -0.293905  10 C  py        
   133      0.293905  11 C  py              169     -0.293905  12 C  py        
   205      0.293905  13 C  py              241     -0.293905  14 C  py        
   277     -0.293905  15 C  py              313      0.293905  16 C  py        
    60     -0.280361   9 C  px               96      0.280361  10 C  px        

 Vector   42  Occ=0.000000D+00  E= 1.728862D-01  Symmetry=t1g
              MO Center= -4.8D-15, -1.1D-14, -6.1D-15, r^2= 5.0D+00
   Bfn.  Coefficient  Atom+Function         Bfn.  Coefficient  Atom+Function  
  ----- ------------  ---------------      ----- ------------  ---------------
    60      0.873963   9 C  px              168     -0.873963  12 C  px        
   240     -0.873963  14 C  px              312      0.873963  16 C  px        
    97      0.840639  10 C  py              169     -0.840639  12 C  py        
   205     -0.840639  13 C  py              313      0.840639  16 C  py        
    61     -0.714439   9 C  py              133      0.714439  11 C  py        

 Vector   43  Occ=0.000000D+00  E= 1.728862D-01  Symmetry=t1g
              MO Center=  3.5D-15,  3.3D-15,  2.3D-14, r^2= 5.0D+00
   Bfn.  Coefficient  Atom+Function         Bfn.  Coefficient  Atom+Function  
  ----- ------------  ---------------      ----- ------------  ---------------
    61      0.851421   9 C  py              133     -0.851421  11 C  py        
   241     -0.851421  14 C  py              277      0.851421  15 C  py        
    62     -0.844000   9 C  pz               98      0.844000  10 C  pz        
   206     -0.844000  13 C  pz              242      0.844000  14 C  pz        
   134     -0.716387  11 C  pz              170      0.716387  12 C  pz        

 Vector   44  Occ=0.000000D+00  E= 1.728862D-01  Symmetry=t1g
              MO Center=  3.4D-14,  2.4D-14, -5.6D-15, r^2= 5.0D+00
   Bfn.  Coefficient  Atom+Function         Bfn.  Coefficient  Atom+Function  
  ----- ------------  ---------------      ----- ------------  ---------------
    96      0.868067  10 C  px              132     -0.868067  11 C  px        
   204     -0.868067  13 C  px              276      0.868067  15 C  px        
   134      0.849336  11 C  pz              170     -0.849336  12 C  pz        
   278     -0.849336  15 C  pz              314      0.849336  16 C  pz        
    62     -0.705627   9 C  pz               98      0.705627  10 C  pz        

 Vector   45  Occ=0.000000D+00  E= 2.080597D-01  Symmetry=a1g
              MO Center=  5.3D-14, -2.1D-14, -2.6D-15, r^2= 6.7D+00
   Bfn.  Coefficient  Atom+Function         Bfn.  Coefficient  Atom+Function  
  ----- ------------  ---------------      ----- ------------  ---------------
    53      0.638993   9 C  s                89      0.638993  10 C  s         
   125      0.638993  11 C  s               161      0.638993  12 C  s         
   197      0.638993  13 C  s               233      0.638993  14 C  s         
   269      0.638993  15 C  s               305      0.638993  16 C  s         
    52      0.354407   9 C  s                88      0.354407  10 C  s         

 Vector   46  Occ=0.000000D+00  E= 2.115336D-01  Symmetry=t2g
              MO Center= -3.0D-12,  3.8D-12, -8.7D-13, r^2= 1.1D+01
   Bfn.  Coefficient  Atom+Function         Bfn.  Coefficient  Atom+Function  
  ----- ------------  ---------------      ----- ------------  ---------------
   161     24.716695  12 C  s               305     24.716695  16 C  s         
    53    -12.279843   9 C  s               233    -12.279843  14 C  s         
   168     -8.136104  12 C  px              312      8.136104  16 C  px        
   169      7.640689  12 C  py              313     -7.640689  16 C  py        
   170      7.474664  12 C  pz              314     -7.474664  16 C  pz        

 Vector   47  Occ=0.000000D+00  E= 2.115336D-01  Symmetry=t2g
              MO Center=  3.9D-13,  1.6D-14,  1.9D-13, r^2= 1.1D+01
   Bfn.  Coefficient  Atom+Function         Bfn.  Coefficient  Atom+Function  
  ----- ------------  ---------------      ----- ------------  ---------------
   125     20.533139  11 C  s               269     20.533139  15 C  s         
    89    -20.426113  10 C  s               197    -20.426113  13 C  s         
    96     -7.714768  10 C  px              132      7.734710  11 C  px        
   204      7.714768  13 C  px              276     -7.734710  15 C  px        
   134      5.879069  11 C  pz              278     -5.879069  15 C  pz        

 Vector   48  Occ=0.000000D+00  E= 2.115336D-01  Symmetry=t2g
              MO Center=  5.3D-14, -2.2D-13,  1.9D-13, r^2= 1.1D+01
   Bfn.  Coefficient  Atom+Function         Bfn.  Coefficient  Atom+Function  
  ----- ------------  ---------------      ----- ------------  ---------------
    53     21.882933   9 C  s               233     21.882933  14 C  s         
   125    -13.424005  11 C  s               269    -13.424005  15 C  s         
    89    -12.765189  10 C  s               197    -12.765189  13 C  s         
    61     -7.446838   9 C  py              241      7.446838  14 C  py        
    62     -7.383969   9 C  pz              242      7.383969  14 C  pz        

 Vector   49  Occ=0.000000D+00  E= 2.392971D-01  Symmetry=t2u
              MO Center= -1.6D-13, -3.9D-13,  2.4D-13, r^2= 8.8D+00
   Bfn.  Coefficient  Atom+Function         Bfn.  Coefficient  Atom+Function  
  ----- ------------  ---------------      ----- ------------  ---------------
    62      0.689088   9 C  pz               98     -0.689088  10 C  pz        
   206     -0.689088  13 C  pz              242      0.689088  14 C  pz        
    97     -0.590081  10 C  py              169      0.590081  12 C  py        
   205     -0.590081  13 C  py              313      0.590081  16 C  py        
    61     -0.449203   9 C  py              133      0.449203  11 C  py        

 Vector   50  Occ=0.000000D+00  E= 2.392971D-01  Symmetry=t2u
              MO Center= -1.4D-13, -5.7D-13,  4.1D-13, r^2= 8.8D+00
   Bfn.  Coefficient  Atom+Function         Bfn.  Coefficient  Atom+Function  
  ----- ------------  ---------------      ----- ------------  ---------------
    96      0.765758  10 C  px              132     -0.765758  11 C  px        
   204      0.765758  13 C  px              276     -0.765758  15 C  px        
    97     -0.491343  10 C  py              169      0.491343  12 C  py        
   205     -0.491343  13 C  py              313      0.491343  16 C  py        
    61      0.406349   9 C  py              133     -0.406349  11 C  py        

 Vector   51  Occ=0.000000D+00  E= 2.392971D-01  Symmetry=t2u
              MO Center=  4.9D-13, -1.1D-14,  3.1D-13, r^2= 8.8D+00
   Bfn.  Coefficient  Atom+Function         Bfn.  Coefficient  Atom+Function  
  ----- ------------  ---------------      ----- ------------  ---------------
    60     -0.729693   9 C  px              168      0.729693  12 C  px        
   240     -0.729693  14 C  px              312      0.729693  16 C  px        
   134     -0.596314  11 C  pz              170      0.596314  12 C  pz        
   278     -0.596314  15 C  pz              314      0.596314  16 C  pz        
    61      0.490408   9 C  py              133     -0.490408  11 C  py        

 Vector   52  Occ=0.000000D+00  E= 2.731580D-01  Symmetry=t1u
              MO Center=  2.5D-12, -1.7D-12, -1.3D-12, r^2= 7.6D+00
   Bfn.  Coefficient  Atom+Function         Bfn.  Coefficient  Atom+Function  
  ----- ------------  ---------------      ----- ------------  ---------------
   161      5.079062  12 C  s               305     -5.079062  16 C  s         
   170      2.808317  12 C  pz              314      2.808317  16 C  pz        
    53     -2.789718   9 C  s               233      2.789718  14 C  s         
   169      2.513178  12 C  py              313      2.513178  16 C  py        
   168     -2.266038  12 C  px              312     -2.266038  16 C  px        

 Vector   53  Occ=0.000000D+00  E= 2.731580D-01  Symmetry=t1u
              MO Center= -3.4D-13, -6.3D-13, -8.0D-13, r^2= 7.6D+00
   Bfn.  Coefficient  Atom+Function         Bfn.  Coefficient  Atom+Function  
  ----- ------------  ---------------      ----- ------------  ---------------
    53     -4.444037   9 C  s               233      4.444037  14 C  s         
    60      2.851469   9 C  px              125      2.837999  11 C  s         
   240      2.851469  14 C  px              269     -2.837999  15 C  s         
    89      2.785832  10 C  s               197     -2.785832  13 C  s         
   132      2.308624  11 C  px              276      2.308624  15 C  px        

 Vector   54  Occ=0.000000D+00  E= 2.731580D-01  Symmetry=t1u
              MO Center= -4.5D-13, -5.4D-13,  9.2D-13, r^2= 7.6D+00
   Bfn.  Coefficient  Atom+Function         Bfn.  Coefficient  Atom+Function  
  ----- ------------  ---------------      ----- ------------  ---------------
   125     -4.402567  11 C  s               269      4.402567  15 C  s         
    89      4.106086  10 C  s               197     -4.106086  13 C  s         
   133      2.647728  11 C  py              277      2.647728  15 C  py        
    97      2.547517  10 C  py              205      2.547517  13 C  py        
   134     -2.369983  11 C  pz              278     -2.369983  15 C  pz        

 Vector   55  Occ=0.000000D+00  E= 2.954971D-01  Symmetry=eu
              MO Center=  2.1D-13, -3.0D-13,  5.6D-13, r^2= 6.3D+00
   Bfn.  Coefficient  Atom+Function         Bfn.  Coefficient  Atom+Function  
  ----- ------------  ---------------      ----- ------------  ---------------
    62     -2.294090   9 C  pz               98     -2.294090  10 C  pz        
   134      2.294090  11 C  pz              170      2.294090  12 C  pz        
   206     -2.294090  13 C  pz              242     -2.294090  14 C  pz        
   278      2.294090  15 C  pz              314      2.294090  16 C  pz        
    61      1.222945   9 C  py               97     -1.222945  10 C  py        

 Vector   56  Occ=0.000000D+00  E= 2.954971D-01  Symmetry=eu
              MO Center=  2.0D-13,  2.8D-13,  1.3D-14, r^2= 6.3D+00
   Bfn.  Coefficient  Atom+Function         Bfn.  Coefficient  Atom+Function  
  ----- ------------  ---------------      ----- ------------  ---------------
    60      2.030561   9 C  px               96     -2.030561  10 C  px        
   132     -2.030561  11 C  px              168      2.030561  12 C  px        
   204     -2.030561  13 C  px              240      2.030561  14 C  px        
   276     -2.030561  15 C  px              312      2.030561  16 C  px        
    61     -1.942919   9 C  py               97      1.942919  10 C  py        

 Vector   57  Occ=0.000000D+00  E= 3.424407D-01  Symmetry=a1g
              MO Center=  4.2D-13,  2.0D-13,  5.9D-13, r^2= 1.2D+01
   Bfn.  Coefficient  Atom+Function         Bfn.  Coefficient  Atom+Function  
  ----- ------------  ---------------      ----- ------------  ---------------
     3      2.505245   1 H  s                 9      2.505245   2 H  s         
    15      2.505245   3 H  s                21      2.505245   4 H  s         
    27      2.505245   5 H  s                33      2.505245   6 H  s         
    39      2.505245   7 H  s                45      2.505245   8 H  s         
    53     -1.739425   9 C  s                89     -1.739425  10 C  s         

 Vector   58  Occ=0.000000D+00  E= 4.004244D-01  Symmetry=t1u
              MO Center=  2.4D-11, -2.4D-11,  6.5D-13, r^2= 7.5D+00
   Bfn.  Coefficient  Atom+Function         Bfn.  Coefficient  Atom+Function  
  ----- ------------  ---------------      ----- ------------  ---------------
    89     -5.918904  10 C  s               197      5.918904  13 C  s         
   125      2.489086  11 C  s               269     -2.489086  15 C  s         
    53      2.419997   9 C  s               233     -2.419997  14 C  s         
    97     -1.357632  10 C  py              205     -1.357632  13 C  py        
    61     -1.121609   9 C  py              133     -1.126270  11 C  py        

 Vector   59  Occ=0.000000D+00  E= 4.004244D-01  Symmetry=t1u
              MO Center=  1.1D-13,  2.4D-13,  4.4D-13, r^2= 7.5D+00
   Bfn.  Coefficient  Atom+Function         Bfn.  Coefficient  Atom+Function  
  ----- ------------  ---------------      ----- ------------  ---------------
    53      5.497441   9 C  s               233     -5.497441  14 C  s         
   125     -3.302376  11 C  s               269      3.302376  15 C  s         
   161     -2.608888  12 C  s               305      2.608888  16 C  s         
    62     -1.524851   9 C  pz              242     -1.524851  14 C  pz        
   134     -1.376780  11 C  pz              278     -1.376780  15 C  pz        

 Vector   60  Occ=0.000000D+00  E= 4.004244D-01  Symmetry=t1u
              MO Center=  3.9D-15,  6.3D-15, -4.0D-14, r^2= 7.5D+00
   Bfn.  Coefficient  Atom+Function         Bfn.  Coefficient  Atom+Function  
  ----- ------------  ---------------      ----- ------------  ---------------
   161      5.315335  12 C  s               305     -5.315335  16 C  s         
   125     -4.356327  11 C  s               269      4.356327  15 C  s         
   168     -1.391533  12 C  px              312     -1.391533  16 C  px        
   132     -1.326842  11 C  px              276     -1.326842  15 C  px        
   169      1.213702  12 C  py              313      1.213702  16 C  py        

 Vector   61  Occ=0.000000D+00  E= 4.005349D-01  Symmetry=t1g
              MO Center= -2.1D-10,  1.5D-10, -1.6D-12, r^2= 8.2D+00
   Bfn.  Coefficient  Atom+Function         Bfn.  Coefficient  Atom+Function  
  ----- ------------  ---------------      ----- ------------  ---------------
    60      1.911012   9 C  px              168     -1.911012  12 C  px        
   240     -1.911012  14 C  px              312      1.911012  16 C  px        
    61     -1.842513   9 C  py              133      1.842513  11 C  py        
   241      1.842513  14 C  py              277     -1.842513  15 C  py        
    97      1.460444  10 C  py              169     -1.460444  12 C  py        

 Vector   62  Occ=0.000000D+00  E= 4.005349D-01  Symmetry=t1g
              MO Center=  1.9D-10, -6.1D-11,  1.0D-10, r^2= 8.2D+00
   Bfn.  Coefficient  Atom+Function         Bfn.  Coefficient  Atom+Function  
  ----- ------------  ---------------      ----- ------------  ---------------
   134     -1.970818  11 C  pz              170      1.970818  12 C  pz        
   278      1.970818  15 C  pz              314     -1.970818  16 C  pz        
    96     -1.913799  10 C  px              132      1.913799  11 C  px        
   204      1.913799  13 C  px              276     -1.913799  15 C  px        
    60     -1.323572   9 C  px              168      1.323572  12 C  px        

 Vector   63  Occ=0.000000D+00  E= 4.005349D-01  Symmetry=t1g
              MO Center= -7.5D-12, -6.7D-11, -1.0D-10, r^2= 8.2D+00
   Bfn.  Coefficient  Atom+Function         Bfn.  Coefficient  Atom+Function  
  ----- ------------  ---------------      ----- ------------  ---------------
    62     -2.013360   9 C  pz               98      2.013360  10 C  pz        
   206     -2.013360  13 C  pz              242      2.013360  14 C  pz        
    97      1.763701  10 C  py              169     -1.763701  12 C  py        
   205     -1.763701  13 C  py              313      1.763701  16 C  py        
    61      1.504779   9 C  py              133     -1.504779  11 C  py        

 Vector   64  Occ=0.000000D+00  E= 4.060293D-01  Symmetry=t2g
              MO Center= -3.0D-13,  3.4D-13,  3.6D-14, r^2= 6.3D+00
   Bfn.  Coefficient  Atom+Function         Bfn.  Coefficient  Atom+Function  
  ----- ------------  ---------------      ----- ------------  ---------------
    53     20.773672   9 C  s               233     20.773672  14 C  s         
   125    -13.028032  11 C  s               269    -13.028032  15 C  s         
   161     -7.027244  12 C  s               305     -7.027244  16 C  s         
    61     -4.275448   9 C  py              241      4.275448  14 C  py        
   133      4.030487  11 C  py              277     -4.030487  15 C  py        

 Vector   65  Occ=0.000000D+00  E= 4.060293D-01  Symmetry=t2g
              MO Center=  2.0D-12, -2.2D-12,  8.5D-13, r^2= 6.3D+00
   Bfn.  Coefficient  Atom+Function         Bfn.  Coefficient  Atom+Function  
  ----- ------------  ---------------      ----- ------------  ---------------
    89     17.406292  10 C  s               197     17.406292  13 C  s         
   125    -16.028362  11 C  s               269    -16.028362  15 C  s         
    53     -7.409701   9 C  s               233     -7.409701  14 C  s         
   161      6.031770  12 C  s               305      6.031770  16 C  s         
    96      4.129660  10 C  px              204     -4.129660  13 C  px        

 Vector   66  Occ=0.000000D+00  E= 4.060293D-01  Symmetry=t2g
              MO Center= -3.9D-11,  1.6D-11,  2.0D-11, r^2= 6.3D+00
   Bfn.  Coefficient  Atom+Function         Bfn.  Coefficient  Atom+Function  
  ----- ------------  ---------------      ----- ------------  ---------------
   161     20.065283  12 C  s               305     20.065283  16 C  s         
    89    -13.597238  10 C  s               197    -13.597238  13 C  s         
   125     -7.857607  11 C  s               269     -7.857607  15 C  s         
   169      4.238145  12 C  py              313     -4.238145  16 C  py        
    97     -4.033589  10 C  py              205      4.033589  13 C  py        

 Vector   67  Occ=0.000000D+00  E= 4.124537D-01  Symmetry=a2u
              MO Center=  4.1D-11, -9.6D-12, -2.5D-11, r^2= 1.1D+01
   Bfn.  Coefficient  Atom+Function         Bfn.  Coefficient  Atom+Function  
  ----- ------------  ---------------      ----- ------------  ---------------
     3      3.330304   1 H  s                 9      3.330304   2 H  s         
    15      3.330304   3 H  s                21      3.330304   4 H  s         
    27     -3.330304   5 H  s                33     -3.330304   6 H  s         
    39     -3.330304   7 H  s                45     -3.330304   8 H  s         
    60     -2.190958   9 C  px               61     -2.190958   9 C  py        

 Vector   68  Occ=0.000000D+00  E= 4.142018D-01  Symmetry=t1u
              MO Center=  3.5D-12, -5.4D-13,  9.1D-13, r^2= 1.1D+01
   Bfn.  Coefficient  Atom+Function         Bfn.  Coefficient  Atom+Function  
  ----- ------------  ---------------      ----- ------------  ---------------
    15     -4.663882   3 H  s                39      4.663882   7 H  s         
   125      4.508503  11 C  s               269     -4.508503  15 C  s         
     9      2.475042   2 H  s                27     -2.475042   5 H  s         
   132     -2.469325  11 C  px              276     -2.469325  15 C  px        
    89     -2.392585  10 C  s               197      2.392585  13 C  s         

 Vector   69  Occ=0.000000D+00  E= 4.142018D-01  Symmetry=t1u
              MO Center=  8.0D-13,  1.0D-12, -6.6D-12, r^2= 1.1D+01
   Bfn.  Coefficient  Atom+Function         Bfn.  Coefficient  Atom+Function  
  ----- ------------  ---------------      ----- ------------  ---------------
     3     -4.629744   1 H  s                33      4.629744   6 H  s         
    53      4.475502   9 C  s               233     -4.475502  14 C  s         
     9      2.761368   2 H  s                27     -2.761368   5 H  s         
    89     -2.669371  10 C  s               197      2.669371  13 C  s         
[...]
   49 Bend                     9    16    10                90.00000    0.00000
   50 Bend                     9    16    11                90.00000    0.00000
   51 Bend                    10    14    11                90.00000    0.00000
   52 Bend                    10    14    12                90.00000    0.00000
   53 Bend                    10    15    12                90.00000    0.00000
   54 Bend                    10    16    11                90.00000    0.00000
   55 Bend                    11    13    12                90.00000    0.00000
   56 Bend                    11    14    12                90.00000    0.00000
   57 Bend                    13     9    15                90.00000    0.00000
   58 Bend                    13     9    16                90.00000    0.00000
   59 Bend                    13    11    14                90.00000    0.00000
   60 Bend                    13    11    16                90.00000    0.00000
   61 Bend                    13    12    14                90.00000    0.00000
   62 Bend                    13    12    15                90.00000    0.00000
   63 Bend                    14    10    15                90.00000    0.00000
   64 Bend                    14    10    16                90.00000    0.00000
   65 Bend                    14    11    16                90.00000    0.00000
   66 Bend                    14    12    15                90.00000    0.00000
   67 Bend                    15     9    16                90.00000    0.00000
   68 Bend                    15    10    16                90.00000    0.00000
   69 Torsion                  1     9    13     5           0.00000    0.00000
   70 Torsion                  1     9    13    11        -135.00000   -0.00000
   71 Torsion                  1     9    13    12         135.00000    0.00000
   72 Torsion                  1     9    15     7           0.00000    0.00000
   73 Torsion                  1     9    15    10         135.00000    0.00000
   74 Torsion                  1     9    15    12        -135.00000   -0.00000
   75 Torsion                  1     9    16     8           0.00000    0.00000
   76 Torsion                  1     9    16    10        -135.00000   -0.00000
   77 Torsion                  1     9    16    11         135.00000    0.00000
   78 Torsion                  2    10    14     6           0.00000    0.00000
   79 Torsion                  2    10    14    11         135.00000    0.00000
   80 Torsion                  2    10    14    12        -135.00000   -0.00000
   81 Torsion                  2    10    15     7           0.00000    0.00000
   82 Torsion                  2    10    15     9        -135.00000   -0.00000
   83 Torsion                  2    10    15    12         135.00000    0.00000
   84 Torsion                  2    10    16     8           0.00000    0.00000
   85 Torsion                  2    10    16     9         135.00000    0.00000
   86 Torsion                  2    10    16    11        -135.00000   -0.00000
   87 Torsion                  3    11    13     5           0.00000    0.00000
   88 Torsion                  3    11    13     9         135.00000    0.00000
   89 Torsion                  3    11    13    12        -135.00000   -0.00000
   90 Torsion                  3    11    14     6           0.00000    0.00000
   91 Torsion                  3    11    14    10        -135.00000   -0.00000
   92 Torsion                  3    11    14    12         135.00000    0.00000
   93 Torsion                  3    11    16     8           0.00000    0.00000
   94 Torsion                  3    11    16     9        -135.00000   -0.00000
   95 Torsion                  3    11    16    10         135.00000    0.00000
   96 Torsion                  4    12    13     5           0.00000    0.00000
   97 Torsion                  4    12    13     9        -135.00000   -0.00000
   98 Torsion                  4    12    13    11         135.00000    0.00000
   99 Torsion                  4    12    14     6           0.00000    0.00000
  100 Torsion                  4    12    14    10         135.00000    0.00000
  101 Torsion                  4    12    14    11        -135.00000   -0.00000
  102 Torsion                  4    12    15     7           0.00000    0.00000
  103 Torsion                  4    12    15     9         135.00000    0.00000
  104 Torsion                  4    12    15    10        -135.00000   -0.00000
  105 Torsion                  5    13     9    15        -135.00000   -0.00000
  106 Torsion                  5    13     9    16         135.00000    0.00000
  107 Torsion                  5    13    11    14         135.00000    0.00000
  108 Torsion                  5    13    11    16        -135.00000   -0.00000
  109 Torsion                  5    13    12    14        -135.00000   -0.00000
  110 Torsion                  5    13    12    15         135.00000    0.00000
  111 Torsion                  6    14    10    15         135.00000    0.00000
  112 Torsion                  6    14    10    16        -135.00000   -0.00000
  113 Torsion                  6    14    11    13        -135.00000   -0.00000
  114 Torsion                  6    14    11    16         135.00000    0.00000
  115 Torsion                  6    14    12    13         135.00000    0.00000
  116 Torsion                  6    14    12    15        -135.00000   -0.00000
  117 Torsion                  7    15     9    13         135.00000    0.00000
  118 Torsion                  7    15     9    16        -135.00000   -0.00000
  119 Torsion                  7    15    10    14        -135.00000   -0.00000
  120 Torsion                  7    15    10    16         135.00000    0.00000
  121 Torsion                  7    15    12    13        -135.00000   -0.00000
  122 Torsion                  7    15    12    14         135.00000    0.00000
  123 Torsion                  8    16     9    13        -135.00000   -0.00000
  124 Torsion                  8    16     9    15         135.00000    0.00000
  125 Torsion                  8    16    10    14         135.00000    0.00000
  126 Torsion                  8    16    10    15        -135.00000   -0.00000
  127 Torsion                  8    16    11    13         135.00000    0.00000
  128 Torsion                  8    16    11    14        -135.00000   -0.00000
  129 Torsion                  9    13    11    14         -90.00000    0.00000
  130 Torsion                  9    13    11    16           0.00000    0.00000
  131 Torsion                  9    13    12    14          90.00000    0.00000
  132 Torsion                  9    13    12    15           0.00000    0.00000
  133 Torsion                  9    15    10    14          90.00000    0.00000
  134 Torsion                  9    15    10    16           0.00000    0.00000
  135 Torsion                  9    15    12    13           0.00000    0.00000
  136 Torsion                  9    15    12    14         -90.00000    0.00000
  137 Torsion                  9    16    10    14         -90.00000    0.00000
  138 Torsion                  9    16    10    15           0.00000    0.00000
  139 Torsion                  9    16    11    13           0.00000    0.00000
  140 Torsion                  9    16    11    14          90.00000    0.00000
  141 Torsion                 10    14    11    13          90.00000    0.00000
  142 Torsion                 10    14    11    16           0.00000    0.00000
  143 Torsion                 10    14    12    13         -90.00000    0.00000
  144 Torsion                 10    14    12    15           0.00000    0.00000
  145 Torsion                 10    15     9    13         -90.00000    0.00000
  146 Torsion                 10    15     9    16           0.00000    0.00000
  147 Torsion                 10    15    12    13          90.00000    0.00000
  148 Torsion                 10    15    12    14           0.00000    0.00000
  149 Torsion                 10    16     9    13          90.00000    0.00000
  150 Torsion                 10    16     9    15           0.00000    0.00000
  151 Torsion                 10    16    11    13         -90.00000    0.00000
  152 Torsion                 10    16    11    14           0.00000    0.00000
  153 Torsion                 11    13     9    15          90.00000    0.00000
  154 Torsion                 11    13     9    16           0.00000    0.00000
  155 Torsion                 11    13    12    14           0.00000    0.00000
  156 Torsion                 11    13    12    15         -90.00000    0.00000
  157 Torsion                 11    14    10    15         -90.00000    0.00000
  158 Torsion                 11    14    10    16           0.00000    0.00000
  159 Torsion                 11    14    12    13           0.00000    0.00000
  160 Torsion                 11    14    12    15          90.00000    0.00000
  161 Torsion                 11    16     9    13           0.00000    0.00000
  162 Torsion                 11    16     9    15         -90.00000    0.00000
  163 Torsion                 11    16    10    14           0.00000    0.00000
  164 Torsion                 11    16    10    15          90.00000    0.00000
  165 Torsion                 12    13     9    15           0.00000    0.00000
  166 Torsion                 12    13     9    16         -90.00000    0.00000
  167 Torsion                 12    13    11    14           0.00000    0.00000
  168 Torsion                 12    13    11    16          90.00000    0.00000
  169 Torsion                 12    14    10    15           0.00000    0.00000
  170 Torsion                 12    14    10    16          90.00000    0.00000
  171 Torsion                 12    14    11    13           0.00000    0.00000
  172 Torsion                 12    14    11    16         -90.00000    0.00000
  173 Torsion                 12    15     9    13           0.00000    0.00000
  174 Torsion                 12    15     9    16          90.00000    0.00000
  175 Torsion                 12    15    10    14           0.00000    0.00000
  176 Torsion                 12    15    10    16         -90.00000    0.00000

 ==============================================================================
                                internuclear distances
 ------------------------------------------------------------------------------
       center one      |      center two      | atomic units |  angstroms
 ------------------------------------------------------------------------------
    9 C                |   1 H                |     2.05498  |     1.08745
   10 C                |   2 H                |     2.05498  |     1.08745
   11 C                |   3 H                |     2.05498  |     1.08745
   12 C                |   4 H                |     2.05498  |     1.08745
   13 C                |   5 H                |     2.05498  |     1.08745
   13 C                |   9 C                |     2.96182  |     1.56733
   13 C                |  11 C                |     2.96182  |     1.56733
   13 C                |  12 C                |     2.96182  |     1.56733
   14 C                |   6 H                |     2.05498  |     1.08745
   14 C                |  10 C                |     2.96182  |     1.56733
   14 C                |  11 C                |     2.96182  |     1.56733
   14 C                |  12 C                |     2.96182  |     1.56733
   15 C                |   7 H                |     2.05498  |     1.08745
   15 C                |   9 C                |     2.96182  |     1.56733
   15 C                |  10 C                |     2.96182  |     1.56733
   15 C                |  12 C                |     2.96182  |     1.56733
   16 C                |   8 H                |     2.05498  |     1.08745
   16 C                |   9 C                |     2.96182  |     1.56733
   16 C                |  10 C                |     2.96182  |     1.56733
   16 C                |  11 C                |     2.96182  |     1.56733
 ------------------------------------------------------------------------------
                         number of included internuclear distances:         20
 ==============================================================================



 ==============================================================================
                                 internuclear angles
 ------------------------------------------------------------------------------
        center 1       |       center 2       |       center 3       |  degrees
 ------------------------------------------------------------------------------
    1 H                |   9 C                |  13 C                |   125.26
    1 H                |   9 C                |  15 C                |   125.26
    1 H                |   9 C                |  16 C                |   125.26
   13 C                |   9 C                |  15 C                |    90.00
   13 C                |   9 C                |  16 C                |    90.00
   15 C                |   9 C                |  16 C                |    90.00
    2 H                |  10 C                |  14 C                |   125.26
    2 H                |  10 C                |  15 C                |   125.26
    2 H                |  10 C                |  16 C                |   125.26
   14 C                |  10 C                |  15 C                |    90.00
   14 C                |  10 C                |  16 C                |    90.00
   15 C                |  10 C                |  16 C                |    90.00
    3 H                |  11 C                |  13 C                |   125.26
    3 H                |  11 C                |  14 C                |   125.26
    3 H                |  11 C                |  16 C                |   125.26
   13 C                |  11 C                |  14 C                |    90.00
   13 C                |  11 C                |  16 C                |    90.00
   14 C                |  11 C                |  16 C                |    90.00
    4 H                |  12 C                |  13 C                |   125.26
    4 H                |  12 C                |  14 C                |   125.26
    4 H                |  12 C                |  15 C                |   125.26
   13 C                |  12 C                |  14 C                |    90.00
   13 C                |  12 C                |  15 C                |    90.00
   14 C                |  12 C                |  15 C                |    90.00
    5 H                |  13 C                |   9 C                |   125.26
    5 H                |  13 C                |  11 C                |   125.26
    5 H                |  13 C                |  12 C                |   125.26
    9 C                |  13 C                |  11 C                |    90.00
    9 C                |  13 C                |  12 C                |    90.00
   11 C                |  13 C                |  12 C                |    90.00
    6 H                |  14 C                |  10 C                |   125.26
    6 H                |  14 C                |  11 C                |   125.26
    6 H                |  14 C                |  12 C                |   125.26
   10 C                |  14 C                |  11 C                |    90.00
   10 C                |  14 C                |  12 C                |    90.00
   11 C                |  14 C                |  12 C                |    90.00
    7 H                |  15 C                |   9 C                |   125.26
    7 H                |  15 C                |  10 C                |   125.26
    7 H                |  15 C                |  12 C                |   125.26
    9 C                |  15 C                |  10 C                |    90.00
    9 C                |  15 C                |  12 C                |    90.00
   10 C                |  15 C                |  12 C                |    90.00
    8 H                |  16 C                |   9 C                |   125.26
    8 H                |  16 C                |  10 C                |   125.26
    8 H                |  16 C                |  11 C                |   125.26
    9 C                |  16 C                |  10 C                |    90.00
    9 C                |  16 C                |  11 C                |    90.00
   10 C                |  16 C                |  11 C                |    90.00
 ------------------------------------------------------------------------------
                            number of included internuclear angles:         48
 ==============================================================================




 Task  times  cpu:      139.3s     wall:      242.2s


                                NWChem Input Module
                                -------------------


 Summary of allocated global arrays
-----------------------------------
  No active global arrays



                         GA Statistics for process    0
                         ------------------------------

       create   destroy   get      put      acc     scatter   gather  read&inc
calls:  296      296     1.62e+05 4.13e+04 1.26e+05    0        0        0     
number of processes/call 1.05e+00 1.02e+00 1.00e+00 0.00e+00 0.00e+00
bytes total:             9.77e+08 2.41e+08 7.57e+08 0.00e+00 0.00e+00 0.00e+00
bytes remote:            1.47e+08 4.01e+07 9.62e+07 0.00e+00 0.00e+00 0.00e+00
Max memory consumed for GA by this process: 32514048 bytes

MA_summarize_allocated_blocks: starting scan ...
MA_summarize_allocated_blocks: scan completed: 0 heap blocks, 0 stack blocks
MA usage statistics:

	allocation statistics:
					      heap	     stack
					      ----	     -----
	current number of blocks	         0	         0
	maximum number of blocks	        25	        52
	current total bytes		         0	         0
	maximum total bytes		 351293240	  40370808
	maximum total K-bytes		    351294	     40371
	maximum total M-bytes		       352	        41


                                     CITATION
                                     --------
                Please cite the following reference when publishing
                           results obtained with NWChem:

                 M. Valiev, E.J. Bylaska, N. Govind, K. Kowalski,
              T.P. Straatsma, H.J.J. van Dam, D. Wang, J. Nieplocha,
                        E. Apra, T.L. Windus, W.A. de Jong
                 "NWChem: a comprehensive and scalable open-source
                  solution for large scale molecular simulations"
                      Comput. Phys. Commun. 181, 1477 (2010)
                           doi:10.1016/j.cpc.2010.04.018

                              AUTHORS & CONTRIBUTORS
                              ----------------------
      E. J. Bylaska, W. A. de Jong, N. Govind, K. Kowalski, T. P. Straatsma,
     M. Valiev, H. J. J. van Dam, D. Wang, E. Apra, T. L. Windus, J. Hammond,
    J. Autschbach, F. Aquino, J. Mullin, P. Nichols, S. Hirata, M. T. Hackler,
   Y. Zhao, P.-D. Fan, R. J. Harrison, M. Dupuis, D. M. A. Smith, K. Glaesemann,
    J. Nieplocha, V. Tipparaju, M. Krishnan, A. Vazquez-Mayagoitia, L. Jensen,
      M. Swart, Q. Wu, T. Van Voorhis, A. A. Auer, M. Nooijen, L. D. Crosby,
        E. Brown, G. Cisneros, G. I. Fann, H. Fruchtl, J. Garza, K. Hirao,
        R. Kendall, J. A. Nichols, K. Tsemekhman, K. Wolinski, J. Anchell,
       D. Bernholdt, P. Borowski, T. Clark, D. Clerc, H. Dachsel, M. Deegan,
        K. Dyall, D. Elwood, E. Glendening, M. Gutowski, A. Hess, J. Jaffe,
        B. Johnson, J. Ju, R. Kobayashi, R. Kutteh, Z. Lin, R. Littlefield,
    X. Long, B. Meng, T. Nakajima, S. Niu, L. Pollack, M. Rosing, G. Sandrone,
       M. Stave, H. Taylor, G. Thomas, J. H. van Lenthe, A. Wong, Z. Zhang.

 Total times  cpu:      139.4s     wall:      243.6s
