 argument  1 = cubane.nw
                                         
                                         


              Northwest Computational Chemistry Package (NWChem) 6.3
              ------------------------------------------------------


                    Environmental Molecular Sciences Laboratory
                       Pacific Northwest National Laboratory
                                Richland, WA 99352

                              Copyright (c) 1994-2012
                       Pacific Northwest National Laboratory
                            Battelle Memorial Institute

             NWChem is an open-source computational chemistry package
                        distributed under the terms of the
                      Educational Community License (ECL) 2.0
             A copy of the license is included with this distribution
                              in the LICENSE.TXT file

                                  ACKNOWLEDGMENT
                                  --------------

            This software and its documentation were developed at the
            EMSL at Pacific Northwest National Laboratory, a multiprogram
            national laboratory, operated for the U.S. Department of Energy
            by Battelle under Contract Number DE-AC05-76RL01830. Support
            for this work was provided by the Department of Energy Office
            of Biological and Environmental Research, Office of Basic
            Energy Sciences, and the Office of Advanced Scientific Computing.


           Job information
           ---------------

    hostname        = kbob-G41MT-S2
    program         = nwchem
    date            = Tue Jun 25 19:23:18 2013

    compiled        = Ср._июня_12_16:23:50_2013
    source          = /opt/nwchem-6.3-src.2013-05-28
    nwchem branch   = 6.3
    nwchem revision = 24277
    ga revision     = 10379
    input           = cubane.nw
    prefix          = cubane.
    data base       = ./cubane.db
    status          = startup
    nproc           =        2
    time left       =     -1s



           Memory information
           ------------------

    heap     =   63236417 doubles =    482.5 Mbytes
    stack    =   63236417 doubles =    482.5 Mbytes
    global   =  126472832 doubles =    964.9 Mbytes (distinct from heap & stack)
    total    =  252945666 doubles =   1929.8 Mbytes
    verify   = yes
    hardfail = no 


           Directory information
           ---------------------

  0 permanent = .
  0 scratch   = .




                                NWChem Input Module
                                -------------------


                     cubane def2-SVP DFT geometry optimization
                     -----------------------------------------

 Scaling coordinates for geometry "geometry" by  1.889725989
 (inverse scale =  0.529177249)

 Turning off AUTOSYM since
 SYMMETRY directive was detected!


          ------
          auto-z
          ------


                             Geometry "geometry" -> ""
                             -------------------------

 Output coordinates in angstroms (scale by  1.889725989 to convert to a.u.)

  No.       Tag          Charge          X              Y              Z
 ---- ---------------- ---------- -------------- -------------- --------------
    1 H                    1.0000     1.41900073     1.41900073     1.41900073
    2 H                    1.0000    -1.41900073    -1.41900073     1.41900073
    3 H                    1.0000    -1.41900073     1.41900073    -1.41900073
    4 H                    1.0000     1.41900073    -1.41900073    -1.41900073
    5 H                    1.0000     1.41900073     1.41900073    -1.41900073
    6 H                    1.0000    -1.41900073    -1.41900073    -1.41900073
    7 H                    1.0000     1.41900073    -1.41900073     1.41900073
    8 H                    1.0000    -1.41900073     1.41900073     1.41900073
    9 C                    6.0000     0.78435179     0.78435179     0.78435179
   10 C                    6.0000    -0.78435179    -0.78435179     0.78435179
   11 C                    6.0000    -0.78435179     0.78435179    -0.78435179
   12 C                    6.0000     0.78435179    -0.78435179    -0.78435179
   13 C                    6.0000     0.78435179     0.78435179    -0.78435179
   14 C                    6.0000    -0.78435179    -0.78435179    -0.78435179
   15 C                    6.0000     0.78435179    -0.78435179     0.78435179
   16 C                    6.0000    -0.78435179     0.78435179     0.78435179

      Atomic Mass 
      ----------- 

      H                  1.007825
      C                 12.000000


 Effective nuclear repulsion energy (a.u.)     366.8244459435

            Nuclear Dipole moment (a.u.) 
            ----------------------------
        X                 Y               Z
 ---------------- ---------------- ----------------
     0.0000000000     0.0000000000     0.0000000000

      Symmetry information
      --------------------

 Group name              Oh       
 Group number             44
 Group order              48
 No. of unique centers     2

      Symmetry unique atoms

     1    9



                                Z-matrix (autoz)
                                -------- 

 Units are Angstrom for bonds and degrees for angles

      Type          Name      I     J     K     L     M      Value
      ----------- --------  ----- ----- ----- ----- ----- ----------
    1 Stretch                  1     9                       1.09924
    2 Stretch                  2    10                       1.09924
    3 Stretch                  3    11                       1.09924
    4 Stretch                  4    12                       1.09924
    5 Stretch                  5    13                       1.09924
    6 Stretch                  6    14                       1.09924
    7 Stretch                  7    15                       1.09924
    8 Stretch                  8    16                       1.09924
    9 Stretch                  9    13                       1.56870
   10 Stretch                  9    15                       1.56870
   11 Stretch                  9    16                       1.56870
   12 Stretch                 10    14                       1.56870
   13 Stretch                 10    15                       1.56870
   14 Stretch                 10    16                       1.56870
   15 Stretch                 11    13                       1.56870
   16 Stretch                 11    14                       1.56870
   17 Stretch                 11    16                       1.56870
   18 Stretch                 12    13                       1.56870
   19 Stretch                 12    14                       1.56870
   20 Stretch                 12    15                       1.56870
   21 Bend                     1     9    13               125.26439
   22 Bend                     1     9    15               125.26439
   23 Bend                     1     9    16               125.26439
   24 Bend                     2    10    14               125.26439
   25 Bend                     2    10    15               125.26439
   26 Bend                     2    10    16               125.26439
   27 Bend                     3    11    13               125.26439
   28 Bend                     3    11    14               125.26439
   29 Bend                     3    11    16               125.26439
   30 Bend                     4    12    13               125.26439
   31 Bend                     4    12    14               125.26439
   32 Bend                     4    12    15               125.26439
   33 Bend                     5    13     9               125.26439
   34 Bend                     5    13    11               125.26439
   35 Bend                     5    13    12               125.26439
   36 Bend                     6    14    10               125.26439
   37 Bend                     6    14    11               125.26439
   38 Bend                     6    14    12               125.26439
   39 Bend                     7    15     9               125.26439
   40 Bend                     7    15    10               125.26439
   41 Bend                     7    15    12               125.26439
   42 Bend                     8    16     9               125.26439
   43 Bend                     8    16    10               125.26439
   44 Bend                     8    16    11               125.26439
   45 Bend                     9    13    11                90.00000
   46 Bend                     9    13    12                90.00000
   47 Bend                     9    15    10                90.00000
   48 Bend                     9    15    12                90.00000
   49 Bend                     9    16    10                90.00000
   50 Bend                     9    16    11                90.00000
   51 Bend                    10    14    11                90.00000
   52 Bend                    10    14    12                90.00000
   53 Bend                    10    15    12                90.00000
   54 Bend                    10    16    11                90.00000
   55 Bend                    11    13    12                90.00000
   56 Bend                    11    14    12                90.00000
   57 Bend                    13     9    15                90.00000
   58 Bend                    13     9    16                90.00000
   59 Bend                    13    11    14                90.00000
   60 Bend                    13    11    16                90.00000
   61 Bend                    13    12    14                90.00000
   62 Bend                    13    12    15                90.00000
   63 Bend                    14    10    15                90.00000
   64 Bend                    14    10    16                90.00000
   65 Bend                    14    11    16                90.00000
   66 Bend                    14    12    15                90.00000
   67 Bend                    15     9    16                90.00000
   68 Bend                    15    10    16                90.00000
   69 Torsion                  1     9    13     5           0.00000
   70 Torsion                  1     9    13    11        -135.00000
   71 Torsion                  1     9    13    12         135.00000
   72 Torsion                  1     9    15     7           0.00000
   73 Torsion                  1     9    15    10         135.00000
   74 Torsion                  1     9    15    12        -135.00000
   75 Torsion                  1     9    16     8           0.00000
   76 Torsion                  1     9    16    10        -135.00000
   77 Torsion                  1     9    16    11         135.00000
   78 Torsion                  2    10    14     6           0.00000
   79 Torsion                  2    10    14    11         135.00000
   80 Torsion                  2    10    14    12        -135.00000
   81 Torsion                  2    10    15     7           0.00000
   82 Torsion                  2    10    15     9        -135.00000
   83 Torsion                  2    10    15    12         135.00000
   84 Torsion                  2    10    16     8           0.00000
   85 Torsion                  2    10    16     9         135.00000
   86 Torsion                  2    10    16    11        -135.00000
   87 Torsion                  3    11    13     5           0.00000
   88 Torsion                  3    11    13     9         135.00000
   89 Torsion                  3    11    13    12        -135.00000
   90 Torsion                  3    11    14     6           0.00000
   91 Torsion                  3    11    14    10        -135.00000
   92 Torsion                  3    11    14    12         135.00000
   93 Torsion                  3    11    16     8           0.00000
   94 Torsion                  3    11    16     9        -135.00000
   95 Torsion                  3    11    16    10         135.00000
   96 Torsion                  4    12    13     5           0.00000
   97 Torsion                  4    12    13     9        -135.00000
   98 Torsion                  4    12    13    11         135.00000
   99 Torsion                  4    12    14     6           0.00000
  100 Torsion                  4    12    14    10         135.00000
  101 Torsion                  4    12    14    11        -135.00000
  102 Torsion                  4    12    15     7           0.00000
  103 Torsion                  4    12    15     9         135.00000
  104 Torsion                  4    12    15    10        -135.00000
  105 Torsion                  5    13     9    15        -135.00000
  106 Torsion                  5    13     9    16         135.00000
  107 Torsion                  5    13    11    14         135.00000
  108 Torsion                  5    13    11    16        -135.00000
  109 Torsion                  5    13    12    14        -135.00000
  110 Torsion                  5    13    12    15         135.00000
  111 Torsion                  6    14    10    15         135.00000
  112 Torsion                  6    14    10    16        -135.00000
  113 Torsion                  6    14    11    13        -135.00000
  114 Torsion                  6    14    11    16         135.00000
  115 Torsion                  6    14    12    13         135.00000
  116 Torsion                  6    14    12    15        -135.00000
  117 Torsion                  7    15     9    13         135.00000
  118 Torsion                  7    15     9    16        -135.00000
  119 Torsion                  7    15    10    14        -135.00000
  120 Torsion                  7    15    10    16         135.00000
  121 Torsion                  7    15    12    13        -135.00000
  122 Torsion                  7    15    12    14         135.00000
  123 Torsion                  8    16     9    13        -135.00000
  124 Torsion                  8    16     9    15         135.00000
  125 Torsion                  8    16    10    14         135.00000
  126 Torsion                  8    16    10    15        -135.00000
  127 Torsion                  8    16    11    13         135.00000
  128 Torsion                  8    16    11    14        -135.00000
  129 Torsion                  9    13    11    14         -90.00000
  130 Torsion                  9    13    11    16           0.00000
  131 Torsion                  9    13    12    14          90.00000
  132 Torsion                  9    13    12    15           0.00000
  133 Torsion                  9    15    10    14          90.00000
  134 Torsion                  9    15    10    16           0.00000
  135 Torsion                  9    15    12    13           0.00000
  136 Torsion                  9    15    12    14         -90.00000
  137 Torsion                  9    16    10    14         -90.00000
  138 Torsion                  9    16    10    15           0.00000
  139 Torsion                  9    16    11    13           0.00000
  140 Torsion                  9    16    11    14          90.00000
  141 Torsion                 10    14    11    13          90.00000
  142 Torsion                 10    14    11    16           0.00000
  143 Torsion                 10    14    12    13         -90.00000
  144 Torsion                 10    14    12    15           0.00000
  145 Torsion                 10    15     9    13         -90.00000
  146 Torsion                 10    15     9    16           0.00000
  147 Torsion                 10    15    12    13          90.00000
  148 Torsion                 10    15    12    14           0.00000
  149 Torsion                 10    16     9    13          90.00000
  150 Torsion                 10    16     9    15           0.00000
  151 Torsion                 10    16    11    13         -90.00000
  152 Torsion                 10    16    11    14           0.00000
  153 Torsion                 11    13     9    15          90.00000
  154 Torsion                 11    13     9    16           0.00000
  155 Torsion                 11    13    12    14           0.00000
  156 Torsion                 11    13    12    15         -90.00000
  157 Torsion                 11    14    10    15         -90.00000
  158 Torsion                 11    14    10    16           0.00000
  159 Torsion                 11    14    12    13           0.00000
  160 Torsion                 11    14    12    15          90.00000
  161 Torsion                 11    16     9    13           0.00000
  162 Torsion                 11    16     9    15         -90.00000
  163 Torsion                 11    16    10    14           0.00000
  164 Torsion                 11    16    10    15          90.00000
  165 Torsion                 12    13     9    15           0.00000
  166 Torsion                 12    13     9    16         -90.00000
  167 Torsion                 12    13    11    14           0.00000
  168 Torsion                 12    13    11    16          90.00000
  169 Torsion                 12    14    10    15           0.00000
  170 Torsion                 12    14    10    16          90.00000
  171 Torsion                 12    14    11    13           0.00000
  172 Torsion                 12    14    11    16         -90.00000
  173 Torsion                 12    15     9    13           0.00000
  174 Torsion                 12    15     9    16          90.00000
  175 Torsion                 12    15    10    14           0.00000
  176 Torsion                 12    15    10    16         -90.00000


            XYZ format geometry
            -------------------
    16
 geometry
 H                     1.41900073     1.41900073     1.41900073
 H                    -1.41900073    -1.41900073     1.41900073
 H                    -1.41900073     1.41900073    -1.41900073
 H                     1.41900073    -1.41900073    -1.41900073
 H                     1.41900073     1.41900073    -1.41900073
 H                    -1.41900073    -1.41900073    -1.41900073
 H                     1.41900073    -1.41900073     1.41900073
 H                    -1.41900073     1.41900073     1.41900073
 C                     0.78435179     0.78435179     0.78435179
 C                    -0.78435179    -0.78435179     0.78435179
 C                    -0.78435179     0.78435179    -0.78435179
 C                     0.78435179    -0.78435179    -0.78435179
 C                     0.78435179     0.78435179    -0.78435179
 C                    -0.78435179    -0.78435179    -0.78435179
 C                     0.78435179    -0.78435179     0.78435179
 C                    -0.78435179     0.78435179     0.78435179

 ==============================================================================
                                internuclear distances
 ------------------------------------------------------------------------------
       center one      |      center two      | atomic units |  angstroms
 ------------------------------------------------------------------------------
    9 C                |   1 H                |     2.07727  |     1.09924
   10 C                |   2 H                |     2.07727  |     1.09924
   11 C                |   3 H                |     2.07727  |     1.09924
   12 C                |   4 H                |     2.07727  |     1.09924
   13 C                |   5 H                |     2.07727  |     1.09924
   13 C                |   9 C                |     2.96442  |     1.56870
   13 C                |  11 C                |     2.96442  |     1.56870
   13 C                |  12 C                |     2.96442  |     1.56870
   14 C                |   6 H                |     2.07727  |     1.09924
   14 C                |  10 C                |     2.96442  |     1.56870
   14 C                |  11 C                |     2.96442  |     1.56870
   14 C                |  12 C                |     2.96442  |     1.56870
   15 C                |   7 H                |     2.07727  |     1.09924
   15 C                |   9 C                |     2.96442  |     1.56870
   15 C                |  10 C                |     2.96442  |     1.56870
   15 C                |  12 C                |     2.96442  |     1.56870
   16 C                |   8 H                |     2.07727  |     1.09924
   16 C                |   9 C                |     2.96442  |     1.56870
   16 C                |  10 C                |     2.96442  |     1.56870
   16 C                |  11 C                |     2.96442  |     1.56870
 ------------------------------------------------------------------------------
                         number of included internuclear distances:         20
 ==============================================================================



 ==============================================================================
                                 internuclear angles
 ------------------------------------------------------------------------------
        center 1       |       center 2       |       center 3       |  degrees
 ------------------------------------------------------------------------------
    1 H                |   9 C                |  13 C                |   125.26
    1 H                |   9 C                |  15 C                |   125.26
    1 H                |   9 C                |  16 C                |   125.26
   13 C                |   9 C                |  15 C                |    90.00
   13 C                |   9 C                |  16 C                |    90.00
   15 C                |   9 C                |  16 C                |    90.00
    2 H                |  10 C                |  14 C                |   125.26
    2 H                |  10 C                |  15 C                |   125.26
    2 H                |  10 C                |  16 C                |   125.26
   14 C                |  10 C                |  15 C                |    90.00
   14 C                |  10 C                |  16 C                |    90.00
   15 C                |  10 C                |  16 C                |    90.00
    3 H                |  11 C                |  13 C                |   125.26
    3 H                |  11 C                |  14 C                |   125.26
    3 H                |  11 C                |  16 C                |   125.26
   13 C                |  11 C                |  14 C                |    90.00
   13 C                |  11 C                |  16 C                |    90.00
   14 C                |  11 C                |  16 C                |    90.00
    4 H                |  12 C                |  13 C                |   125.26
    4 H                |  12 C                |  14 C                |   125.26
    4 H                |  12 C                |  15 C                |   125.26
   13 C                |  12 C                |  14 C                |    90.00
   13 C                |  12 C                |  15 C                |    90.00
   14 C                |  12 C                |  15 C                |    90.00
    5 H                |  13 C                |   9 C                |   125.26
    5 H                |  13 C                |  11 C                |   125.26
    5 H                |  13 C                |  12 C                |   125.26
    9 C                |  13 C                |  11 C                |    90.00
    9 C                |  13 C                |  12 C                |    90.00
   11 C                |  13 C                |  12 C                |    90.00
    6 H                |  14 C                |  10 C                |   125.26
    6 H                |  14 C                |  11 C                |   125.26
    6 H                |  14 C                |  12 C                |   125.26
   10 C                |  14 C                |  11 C                |    90.00
   10 C                |  14 C                |  12 C                |    90.00
   11 C                |  14 C                |  12 C                |    90.00
    7 H                |  15 C                |   9 C                |   125.26
    7 H                |  15 C                |  10 C                |   125.26
    7 H                |  15 C                |  12 C                |   125.26
    9 C                |  15 C                |  10 C                |    90.00
    9 C                |  15 C                |  12 C                |    90.00
   10 C                |  15 C                |  12 C                |    90.00
    8 H                |  16 C                |   9 C                |   125.26
    8 H                |  16 C                |  10 C                |   125.26
    8 H                |  16 C                |  11 C                |   125.26
    9 C                |  16 C                |  10 C                |    90.00
    9 C                |  16 C                |  11 C                |    90.00
   10 C                |  16 C                |  11 C                |    90.00
 ------------------------------------------------------------------------------
                            number of included internuclear angles:         48
 ==============================================================================



  library name resolved from: environment
  library file name is: </opt/nwchem-6.3-src.2013-05-28/src/basis/libraries/>
  
                      Basis "ao basis" -> "" (cartesian)
                      -----
  H (Hydrogen)
  ------------
            Exponent  Coefficients 
       -------------- ---------------------------------------------------------
  1 S  1.30107010E+01  0.019682
  1 S  1.96225720E+00  0.137965
  1 S  4.44537960E-01  0.478319

  2 S  1.21949620E-01  1.000000

  3 P  8.00000000E-01  1.000000

  C (Carbon)
  ----------
            Exponent  Coefficients 
       -------------- ---------------------------------------------------------
  1 S  1.23840169E+03  0.005457
  1 S  1.86290050E+02  0.040638
  1 S  4.22511763E+01  0.180256
  1 S  1.16765579E+01  0.463151
  1 S  3.59305065E+00  0.440872

  2 S  4.02451474E-01  1.000000

  3 S  1.30901827E-01  1.000000

  4 P  9.46809706E+00  0.038388
  4 P  2.01035451E+00  0.211170
  4 P  5.47710047E-01  0.513282

  5 P  1.52686138E-01  1.000000

  6 D  8.00000000E-01  1.000000



 Summary of "ao basis" -> "" (cartesian)
 ------------------------------------------------------------------------------
       Tag                 Description            Shells   Functions and Types
 ---------------- ------------------------------  ------  ---------------------
 H                          def2-SVP                 3        5   2s1p
 C                          def2-SVP                 6       15   3s2p1d




                           NWChem Geometry Optimization
                           ----------------------------




                     cubane def2-SVP DFT geometry optimization


 maximum gradient threshold         (gmax) =   0.000450
 rms gradient threshold             (grms) =   0.000300
 maximum cartesian step threshold   (xmax) =   0.001800
 rms cartesian step threshold       (xrms) =   0.001200
 fixed trust radius                (trust) =   0.300000
 maximum step size to saddle      (sadstp) =   0.100000
 energy precision                  (eprec) =   5.0D-06
 maximum number of steps          (nptopt) =   20
 initial hessian option           (inhess) =    0
 line search option               (linopt) =    1
 hessian update option            (modupd) =    1
 saddle point option              (modsad) =    0
 initial eigen-mode to follow     (moddir) =    0
 initial variable to follow       (vardir) =    0
 follow first negative mode     (firstneg) =    T
 apply conjugacy                    (opcg) =    F
 source of zmatrix                         =   autoz   


          -------------------
          Energy Minimization
          -------------------


 Names of Z-matrix variables 
    1              2              3              4              5         
    6              7              8              9             10         
   11             12             13             14             15         
   16             17             18             19             20         
   21             22             23             24             25         
   26             27             28             29             30         
   31             32             33             34             35         
   36             37             38             39             40         
   41             42             43             44             45         
   46             47             48             49             50         
   51             52             53             54             55         
   56             57             58             59             60         
   61             62             63             64             65         
   66             67             68             69             70         
   71             72             73             74             75         
   76             77             78             79             80         
   81             82             83             84             85         
   86             87             88             89             90         
   91             92             93             94             95         
   96             97             98             99            100         
  101            102            103            104            105         
  106            107            108            109            110         
  111            112            113            114            115         
  116            117            118            119            120         
  121            122            123            124            125         
  126            127            128            129            130         
  131            132            133            134            135         
  136            137            138            139            140         
  141            142            143            144            145         
  146            147            148            149            150         
  151            152            153            154            155         
  156            157            158            159            160         
  161            162            163            164            165         
  166            167            168            169            170         
  171            172            173            174            175         
  176         

 Variables with the same non-blank name are constrained to be equal


 Using diagonal initial Hessian 
 Scaling for Hessian diagonals: bonds = 1.00  angles = 0.25  torsions = 0.10

          --------
          Step   0
          --------


                         Geometry "geometry" -> "geometry"
                         ---------------------------------

 Output coordinates in angstroms (scale by  1.889725989 to convert to a.u.)

  No.       Tag          Charge          X              Y              Z
 ---- ---------------- ---------- -------------- -------------- --------------
    1 H                    1.0000     1.41900073     1.41900073     1.41900073
    2 H                    1.0000    -1.41900073    -1.41900073     1.41900073
    3 H                    1.0000    -1.41900073     1.41900073    -1.41900073
    4 H                    1.0000     1.41900073    -1.41900073    -1.41900073
    5 H                    1.0000     1.41900073     1.41900073    -1.41900073
    6 H                    1.0000    -1.41900073    -1.41900073    -1.41900073
    7 H                    1.0000     1.41900073    -1.41900073     1.41900073
    8 H                    1.0000    -1.41900073     1.41900073     1.41900073
    9 C                    6.0000     0.78435179     0.78435179     0.78435179
   10 C                    6.0000    -0.78435179    -0.78435179     0.78435179
   11 C                    6.0000    -0.78435179     0.78435179    -0.78435179
   12 C                    6.0000     0.78435179    -0.78435179    -0.78435179
   13 C                    6.0000     0.78435179     0.78435179    -0.78435179
   14 C                    6.0000    -0.78435179    -0.78435179    -0.78435179
   15 C                    6.0000     0.78435179    -0.78435179     0.78435179
   16 C                    6.0000    -0.78435179     0.78435179     0.78435179

      Atomic Mass 
      ----------- 

      H                  1.007825
      C                 12.000000


 Effective nuclear repulsion energy (a.u.)     366.8244459435

            Nuclear Dipole moment (a.u.) 
            ----------------------------
        X                 Y               Z
 ---------------- ---------------- ----------------
     0.0000000000     0.0000000000     0.0000000000

      Symmetry information
      --------------------

 Group name              Oh       
 Group number             44
 Group order              48
 No. of unique centers     2

      Symmetry unique atoms

     1    9


                                 NWChem DFT Module
                                 -----------------


                     cubane def2-SVP DFT geometry optimization


  Caching 1-el integrals 

            General Information
            -------------------
          SCF calculation type: DFT
          Wavefunction type:  closed shell.
          No. of atoms     :    16
          No. of electrons :    56
           Alpha electrons :    28
            Beta electrons :    28
          Charge           :     0
          Spin multiplicity:     1
          Use of symmetry is: on ; symmetry adaption is: on 
          Maximum number of iterations:  30
          AO basis - number of functions:   160
                     number of shells:    72
          Convergence on energy requested: 1.00D-06
          Convergence on density requested: 1.00D-05
          Convergence on gradient requested: 5.00D-04

              XC Information
              --------------
                         B3LYP Method XC Potential
                     Hartree-Fock (Exact) Exchange  0.200          
                        Slater Exchange Functional  0.800 local    
                    Becke 1988 Exchange Functional  0.720 non-local
              Lee-Yang-Parr Correlation Functional  0.810          
                  VWN I RPA Correlation Functional  0.190 local    

             Grid Information
             ----------------
          Grid used for XC integration:  medium    
          Radial quadrature: Mura-Knowles        
          Angular quadrature: Lebedev. 
          Tag              B.-S. Rad. Rad. Pts. Rad. Cut. Ang. Pts.
          ---              ---------- --------- --------- ---------
          H                   0.35       45          12.0       434
          C                   0.70       49          10.0       434
          Grid pruning is: on 
          Number of quadrature shells:    94
          Spatial weights used:  Erf1

          Convergence Information
          -----------------------
          Convergence aids based upon iterative change in 
          total energy or number of iterations. 
          Levelshifting, if invoked, occurs when the 
          HOMO/LUMO gap drops below (HL_TOL): 1.00D-02
          DIIS, if invoked, will attempt to extrapolate 
          using up to (NFOCK): 10 stored Fock matrices.

                    Damping( 0%)  Levelshifting(0.5)       DIIS
                  --------------- ------------------- ---------------
          dE  on:    start            ASAP                start   
          dE off:    2 iters         30 iters            30 iters 


      Screening Tolerance Information
      -------------------------------
          Density screening/tol_rho: 1.00D-10
          AO Gaussian exp screening on grid/accAOfunc:  14
          CD Gaussian exp screening on grid/accCDfunc:  20
          XC Gaussian exp screening on grid/accXCfunc:  20
          Schwarz screening/accCoul: 1.00D-08


      Superposition of Atomic Density Guess
      -------------------------------------

 Sum of atomic energies:        -304.99271631

      Non-variational initial energy
      ------------------------------

 Total energy =    -311.527696
 1-e energy   =   -1136.343632
 2-e energy   =     457.991490
 HOMO         =      -0.291006
 LUMO         =       0.061596


      Symmetry analysis of molecular orbitals - initial
      -------------------------------------------------

  Numbering of irreducible representations: 

     1 a1g         2 a1u         3 a2g         4 a2u         5 eg      
     6 eu          7 t1g         8 t1u         9 t2g        10 t2u     

  Orbital symmetries:

     1 a1g         2 t1u         3 t1u         4 t1u         5 t2g     
     6 t2g         7 t2g         8 a2u         9 a1g        10 t1u     
    11 t1u        12 t1u        13 t2g        14 t2g        15 t2g     
    16 a1g        17 a2u        18 eg         19 eg         20 t1u     
    21 t1u        22 t1u        23 t2u        24 t2u        25 t2u     
    26 t2g        27 t2g        28 t2g        29 t1u        30 t1u     
    31 t1u        32 a1g        33 t1u        34 t1u        35 t1u     
    36 t2g        37 t2g        38 t2g     

   Time after variat. SCF:      0.9
   Time prior to 1st pass:      0.9

 Integral file          = ./cubane.aoints.0
 Record size in doubles =  65536        No. of integs per rec  =  43688
 Max. records in memory =     36        Max. records in file   = 185274
 No. of bits per label  =      8        No. of bits per value  =     64


 #quartets = 1.186D+05 #integrals = 2.774D+06 #direct =  0.0% #cached =100.0%


File balance: exchanges=     0  moved=     0  time=   0.0


 Grid_pts file          = ./cubane.gridpts.0
 Record size in doubles =  12289        No. of grid_pts per rec  =   3070
 Max. records in memory =      9        Max. recs in file   =    988051

 Grid integrated density:      56.000272752925
 Requested integration accuracy:   0.10E-05

           Memory utilization after 1st SCF pass: 
           Heap Space remaining (MW):       60.76            60758500
          Stack Space remaining (MW):       63.24            63235177

   convergence    iter        energy       DeltaE   RMS-Dens  Diis-err    time
 ---------------- ----- ----------------- --------- --------- ---------  ------
 d= 0,ls=0.0,diis     1   -309.1854234703 -6.76D+02  1.65D-02  6.60D-01     1.9
 Grid integrated density:      56.000219511404
 Requested integration accuracy:   0.10E-05
 d= 0,ls=0.0,diis     2   -309.2550224586 -6.96D-02  3.46D-03  1.10D-02     2.4
 Grid integrated density:      56.000220804427
 Requested integration accuracy:   0.10E-05
 d= 0,ls=0.0,diis     3   -309.2554020469 -3.80D-04  6.88D-04  1.00D-02     2.8
 Grid integrated density:      56.000220628273
 Requested integration accuracy:   0.10E-05
 d= 0,ls=0.0,diis     4   -309.2566403618 -1.24D-03  1.59D-04  7.15D-04     3.2
 Grid integrated density:      56.000220102310
 Requested integration accuracy:   0.10E-05
 d= 0,ls=0.0,diis     5   -309.2567174369 -7.71D-05  2.66D-05  3.51D-06     3.7
 Grid integrated density:      56.000220159035
 Requested integration accuracy:   0.10E-05
 d= 0,ls=0.0,diis     6   -309.2567178863 -4.49D-07  3.54D-06  1.26D-08     4.2


         Total DFT energy =     -309.256717886337
      One electron energy =    -1143.140285684772
           Coulomb energy =      513.355765705823
    Exchange-Corr. energy =      -46.296643850930
 Nuclear repulsion energy =      366.824445943542

 Numeric. integr. density =       56.000220159035

     Total iterative time =      3.2s



                  Occupations of the irreducible representations
                  ----------------------------------------------

                     irrep           alpha         beta
                     --------     --------     --------
                     a1g               3.0          3.0
                     a1u               0.0          0.0
                     a2g               0.0          0.0
                     a2u               2.0          2.0
                     eg                2.0          2.0
                     eu                0.0          0.0
                     t1g               0.0          0.0
                     t1u               9.0          9.0
                     t2g               9.0          9.0
                     t2u               3.0          3.0


                       DFT Final Molecular Orbital Analysis
                       ------------------------------------

 Vector    8  Occ=2.000000D+00  E=-1.019278D+01  Symmetry=a2u
              MO Center=  1.8D-10, -5.4D-11, -2.1D-10, r^2= 1.9D+00
   Bfn.  Coefficient  Atom+Function         Bfn.  Coefficient  Atom+Function  
  ----- ------------  ---------------      ----- ------------  ---------------
    41      0.349306   9 C  s                56      0.349306  10 C  s         
    71      0.349306  11 C  s                86      0.349306  12 C  s         
   101     -0.349306  13 C  s               116     -0.349306  14 C  s         
   131     -0.349306  15 C  s               146     -0.349306  16 C  s         
    43     -0.254397   9 C  s                58     -0.254397  10 C  s         

 Vector    9  Occ=2.000000D+00  E=-9.412305D-01  Symmetry=a1g
              MO Center=  2.6D-16, -2.8D-16, -1.5D-15, r^2= 1.6D+00
   Bfn.  Coefficient  Atom+Function         Bfn.  Coefficient  Atom+Function  
  ----- ------------  ---------------      ----- ------------  ---------------
    42      0.162529   9 C  s                57      0.162529  10 C  s         
    72      0.162529  11 C  s                87      0.162529  12 C  s         
   102      0.162529  13 C  s               117      0.162529  14 C  s         
   132      0.162529  15 C  s               147      0.162529  16 C  s         

 Vector   10  Occ=2.000000D+00  E=-7.196829D-01  Symmetry=t1u
              MO Center= -4.8D-16,  1.7D-15,  2.0D-15, r^2= 2.6D+00
   Bfn.  Coefficient  Atom+Function         Bfn.  Coefficient  Atom+Function  
  ----- ------------  ---------------      ----- ------------  ---------------
    87      0.272550  12 C  s               147     -0.272550  16 C  s         
    57     -0.181014  10 C  s               102      0.181014  13 C  s         

 Vector   11  Occ=2.000000D+00  E=-7.196829D-01  Symmetry=t1u
              MO Center=  1.3D-15,  3.9D-15,  3.0D-16, r^2= 2.6D+00
   Bfn.  Coefficient  Atom+Function         Bfn.  Coefficient  Atom+Function  
  ----- ------------  ---------------      ----- ------------  ---------------
    72      0.239468  11 C  s               132     -0.239468  15 C  s         
    57     -0.207049  10 C  s               102      0.207049  13 C  s         

 Vector   12  Occ=2.000000D+00  E=-7.196829D-01  Symmetry=t1u
              MO Center=  4.5D-16,  1.5D-16,  1.7D-16, r^2= 2.6D+00
   Bfn.  Coefficient  Atom+Function         Bfn.  Coefficient  Atom+Function  
  ----- ------------  ---------------      ----- ------------  ---------------
    42      0.261721   9 C  s               117     -0.261721  14 C  s         
    72     -0.186714  11 C  s               132      0.186714  15 C  s         

 Vector   13  Occ=2.000000D+00  E=-5.517393D-01  Symmetry=t2g
              MO Center=  4.1D-16, -9.3D-17, -4.3D-16, r^2= 4.1D+00
   Bfn.  Coefficient  Atom+Function         Bfn.  Coefficient  Atom+Function  
  ----- ------------  ---------------      ----- ------------  ---------------
    87      0.253357  12 C  s               147      0.253357  16 C  s         
    16      0.179827   4 H  s                36      0.179827   8 H  s         
    42     -0.165531   9 C  s               117     -0.165531  14 C  s         

 Vector   14  Occ=2.000000D+00  E=-5.517393D-01  Symmetry=t2g
              MO Center=  5.3D-15,  1.1D-15,  5.6D-15, r^2= 4.1D+00
   Bfn.  Coefficient  Atom+Function         Bfn.  Coefficient  Atom+Function  
  ----- ------------  ---------------      ----- ------------  ---------------
    72      0.246900  11 C  s               132      0.246900  15 C  s         
    42     -0.204781   9 C  s               117     -0.204781  14 C  s         
    11      0.175244   3 H  s                31      0.175244   7 H  s         

 Vector   15  Occ=2.000000D+00  E=-5.517393D-01  Symmetry=t2g
              MO Center= -1.3D-15, -1.1D-15,  9.3D-16, r^2= 4.1D+00
   Bfn.  Coefficient  Atom+Function         Bfn.  Coefficient  Atom+Function  
  ----- ------------  ---------------      ----- ------------  ---------------
    57      0.277857  10 C  s               102      0.277857  13 C  s         
     6      0.197217   2 H  s                21      0.197217   5 H  s         

 Vector   16  Occ=2.000000D+00  E=-5.284826D-01  Symmetry=a1g
              MO Center=  6.0D-16, -4.0D-16, -6.1D-16, r^2= 4.4D+00
   Bfn.  Coefficient  Atom+Function         Bfn.  Coefficient  Atom+Function  
  ----- ------------  ---------------      ----- ------------  ---------------
     1      0.120234   1 H  s                 6      0.120234   2 H  s         
    11      0.120234   3 H  s                16      0.120234   4 H  s         
    21      0.120234   5 H  s                26      0.120234   6 H  s         
    31      0.120234   7 H  s                36      0.120234   8 H  s         

 Vector   17  Occ=2.000000D+00  E=-4.576969D-01  Symmetry=a2u
              MO Center= -7.1D-15,  4.2D-16, -8.9D-15, r^2= 5.1D+00
   Bfn.  Coefficient  Atom+Function         Bfn.  Coefficient  Atom+Function  
  ----- ------------  ---------------      ----- ------------  ---------------
    43      0.411876   9 C  s                58      0.411876  10 C  s         
    73      0.411876  11 C  s                88      0.411876  12 C  s         
   103     -0.411876  13 C  s               118     -0.411876  14 C  s         
   133     -0.411876  15 C  s               148     -0.411876  16 C  s         
     1      0.163236   1 H  s                 6      0.163236   2 H  s         

 Vector   18  Occ=2.000000D+00  E=-4.350802D-01  Symmetry=eg
              MO Center= -2.2D-16, -1.8D-16,  1.8D-17, r^2= 2.6D+00
   Bfn.  Coefficient  Atom+Function         Bfn.  Coefficient  Atom+Function  
  ----- ------------  ---------------      ----- ------------  ---------------
    44      0.171939   9 C  px               59     -0.171939  10 C  px        
    74     -0.171939  11 C  px               89      0.171939  12 C  px        
   104      0.171939  13 C  px              119     -0.171939  14 C  px        
   134      0.171939  15 C  px              149     -0.171939  16 C  px        

 Vector   19  Occ=2.000000D+00  E=-4.350802D-01  Symmetry=eg
              MO Center=  7.3D-16,  6.8D-15,  3.1D-15, r^2= 2.6D+00
   Bfn.  Coefficient  Atom+Function         Bfn.  Coefficient  Atom+Function  
  ----- ------------  ---------------      ----- ------------  ---------------
    45      0.166093   9 C  py               60     -0.166093  10 C  py        
    75      0.166093  11 C  py               90     -0.166093  12 C  py        
   105      0.166093  13 C  py              120     -0.166093  14 C  py        
   135     -0.166093  15 C  py              150      0.166093  16 C  py        

 Vector   20  Occ=2.000000D+00  E=-4.241001D-01  Symmetry=t1u
              MO Center=  6.1D-16, -2.7D-15, -3.2D-16, r^2= 4.2D+00
   Bfn.  Coefficient  Atom+Function         Bfn.  Coefficient  Atom+Function  
  ----- ------------  ---------------      ----- ------------  ---------------
     1      0.178337   1 H  s                 6     -0.178528   2 H  s         
    21      0.178528   5 H  s                26     -0.178337   6 H  s         
    46      0.166247   9 C  pz               61     -0.166305  10 C  pz        
   106     -0.166305  13 C  pz              121      0.166247  14 C  pz        

 Vector   21  Occ=2.000000D+00  E=-4.241001D-01  Symmetry=t1u
              MO Center= -4.9D-16, -7.7D-15,  8.6D-16, r^2= 4.2D+00
   Bfn.  Coefficient  Atom+Function         Bfn.  Coefficient  Atom+Function  
  ----- ------------  ---------------      ----- ------------  ---------------
    16      0.190516   4 H  s                36     -0.190516   8 H  s         
    91     -0.169446  12 C  pz              151     -0.169446  16 C  pz        
    11     -0.164778   3 H  s                31      0.164778   7 H  s         
    76      0.161642  11 C  pz              136      0.161642  15 C  pz        

 Vector   22  Occ=2.000000D+00  E=-4.241001D-01  Symmetry=t1u
              MO Center= -2.1D-16, -3.0D-15, -4.8D-15, r^2= 4.2D+00
   Bfn.  Coefficient  Atom+Function         Bfn.  Coefficient  Atom+Function  
  ----- ------------  ---------------      ----- ------------  ---------------
    11     -0.153873   3 H  s                31      0.153873   7 H  s         

 Vector   23  Occ=2.000000D+00  E=-2.770862D-01  Symmetry=t2u
              MO Center= -2.9D-14, -1.5D-15, -4.6D-15, r^2= 2.8D+00
   Bfn.  Coefficient  Atom+Function         Bfn.  Coefficient  Atom+Function  
  ----- ------------  ---------------      ----- ------------  ---------------
    59      0.235421  10 C  px               74     -0.235421  11 C  px        
   104      0.235421  13 C  px              134     -0.235421  15 C  px        
    46     -0.158351   9 C  pz               61      0.158351  10 C  pz        
   106      0.158351  13 C  pz              121     -0.158351  14 C  pz        

 Vector   24  Occ=2.000000D+00  E=-2.770862D-01  Symmetry=t2u
              MO Center=  3.0D-16, -2.9D-16, -4.0D-16, r^2= 2.8D+00
   Bfn.  Coefficient  Atom+Function         Bfn.  Coefficient  Atom+Function  
  ----- ------------  ---------------      ----- ------------  ---------------
    44      0.238142   9 C  px               89     -0.238142  12 C  px        
   119      0.238142  14 C  px              149     -0.238142  16 C  px        

 Vector   25  Occ=2.000000D+00  E=-2.770862D-01  Symmetry=t2u
              MO Center= -3.0D-15,  9.3D-15, -2.5D-15, r^2= 2.8D+00
   Bfn.  Coefficient  Atom+Function         Bfn.  Coefficient  Atom+Function  
  ----- ------------  ---------------      ----- ------------  ---------------
    76      0.196132  11 C  pz               91     -0.196132  12 C  pz        
   136      0.196132  15 C  pz              151     -0.196132  16 C  pz        
    60     -0.176755  10 C  py               90      0.176755  12 C  py        
   105     -0.176755  13 C  py              150      0.176755  16 C  py        
    45     -0.157159   9 C  py               75      0.157159  11 C  py        

 Vector   26  Occ=2.000000D+00  E=-2.644398D-01  Symmetry=t2g
              MO Center=  3.1D-14, -2.8D-15,  1.2D-15, r^2= 3.5D+00
   Bfn.  Coefficient  Atom+Function         Bfn.  Coefficient  Atom+Function  
  ----- ------------  ---------------      ----- ------------  ---------------
    61      0.214509  10 C  pz               76      0.213672  11 C  pz        
   106     -0.214509  13 C  pz              136     -0.213672  15 C  pz        
    46      0.205876   9 C  pz               91      0.206713  12 C  pz        
   121     -0.205876  14 C  pz              151     -0.206713  16 C  pz        
     6      0.165452   2 H  s                21      0.165452   5 H  s         

 Vector   27  Occ=2.000000D+00  E=-2.644398D-01  Symmetry=t2g
              MO Center=  1.4D-15, -1.0D-14,  1.8D-14, r^2= 3.5D+00
   Bfn.  Coefficient  Atom+Function         Bfn.  Coefficient  Atom+Function  
  ----- ------------  ---------------      ----- ------------  ---------------
    89      0.202126  12 C  px              149     -0.202126  16 C  px        
    74      0.199047  11 C  px              134     -0.199047  15 C  px        
    59      0.191192  10 C  px              104     -0.191192  13 C  px        
    44      0.188112   9 C  px              119     -0.188112  14 C  px        
    16      0.185882   4 H  s                36      0.185882   8 H  s         

 Vector   28  Occ=2.000000D+00  E=-2.644398D-01  Symmetry=t2g
              MO Center= -3.6D-16,  4.6D-15, -1.1D-14, r^2= 3.5D+00
   Bfn.  Coefficient  Atom+Function         Bfn.  Coefficient  Atom+Function  
  ----- ------------  ---------------      ----- ------------  ---------------
     1      0.203297   1 H  s                26      0.203297   6 H  s         
    45      0.192118   9 C  py              120     -0.192118  14 C  py        
    60      0.184907  10 C  py              105     -0.184907  13 C  py        
    90      0.180788  12 C  py              150     -0.180788  16 C  py        
    75      0.173577  11 C  py              135     -0.173577  15 C  py        

 Vector   29  Occ=0.000000D+00  E= 5.694398D-02  Symmetry=a1g
              MO Center=  1.1D-16,  4.4D-16,  4.5D-16, r^2= 9.6D+00
   Bfn.  Coefficient  Atom+Function         Bfn.  Coefficient  Atom+Function  
  ----- ------------  ---------------      ----- ------------  ---------------
     2      0.666641   1 H  s                 7      0.666641   2 H  s         
    12      0.666641   3 H  s                17      0.666641   4 H  s         
    22      0.666641   5 H  s                27      0.666641   6 H  s         
    32      0.666641   7 H  s                37      0.666641   8 H  s         
    43     -0.465130   9 C  s                58     -0.465130  10 C  s         

 Vector   30  Occ=0.000000D+00  E= 6.543863D-02  Symmetry=t1u
              MO Center= -3.3D-14,  2.1D-14,  4.4D-14, r^2= 4.9D+00
   Bfn.  Coefficient  Atom+Function         Bfn.  Coefficient  Atom+Function  
  ----- ------------  ---------------      ----- ------------  ---------------
    88     -1.066424  12 C  s               148      1.066424  16 C  s         
    73      0.988024  11 C  s               133     -0.988024  15 C  s         
    63     -0.428651  10 C  py              108     -0.428651  13 C  py        
    48     -0.416676   9 C  py              123     -0.416676  14 C  py        
    17      0.380800   4 H  s                37     -0.380800   8 H  s         

 Vector   31  Occ=0.000000D+00  E= 6.543863D-02  Symmetry=t1u
              MO Center=  7.0D-15, -1.3D-14,  8.9D-15, r^2= 4.9D+00
   Bfn.  Coefficient  Atom+Function         Bfn.  Coefficient  Atom+Function  
  ----- ------------  ---------------      ----- ------------  ---------------
    43      1.150089   9 C  s               118     -1.150089  14 C  s         
    73     -0.815224  11 C  s               133      0.815224  15 C  s         
    88     -0.477359  12 C  s               148      0.477359  16 C  s         
    64     -0.445922  10 C  pz              109     -0.445922  13 C  pz        
     2     -0.410676   1 H  s                27      0.410676   6 H  s         

 Vector   32  Occ=0.000000D+00  E= 6.543863D-02  Symmetry=t1u
              MO Center=  6.7D-16, -7.2D-16, -5.6D-17, r^2= 4.9D+00
   Bfn.  Coefficient  Atom+Function         Bfn.  Coefficient  Atom+Function  
  ----- ------------  ---------------      ----- ------------  ---------------
    58      1.270594  10 C  s               103     -1.270594  13 C  s         
    88     -0.558098  12 C  s               148      0.558098  16 C  s         
    43     -0.523229   9 C  s               118      0.523229  14 C  s         
     7     -0.453705   2 H  s                22      0.453705   5 H  s         
    77      0.420157  11 C  px              137      0.420157  15 C  px        

 Vector   33  Occ=0.000000D+00  E= 1.193355D-01  Symmetry=t1u
              MO Center= -1.2D-13,  7.2D-14, -1.0D-14, r^2= 9.6D+00
   Bfn.  Coefficient  Atom+Function         Bfn.  Coefficient  Atom+Function  
  ----- ------------  ---------------      ----- ------------  ---------------
     2      1.126972   1 H  s                27     -1.126972   6 H  s         
    12     -0.796972   3 H  s                32      0.796972   7 H  s         
    17     -0.600887   4 H  s                37      0.600887   8 H  s         
    49     -0.462762   9 C  pz              124     -0.462762  14 C  pz        
    43     -0.390825   9 C  s               118      0.390825  14 C  s         

 Vector   34  Occ=0.000000D+00  E= 1.193355D-01  Symmetry=t1u
              MO Center= -5.6D-16,  2.0D-15, -1.1D-15, r^2= 9.6D+00
   Bfn.  Coefficient  Atom+Function         Bfn.  Coefficient  Atom+Function  
  ----- ------------  ---------------      ----- ------------  ---------------
    12      0.969752   3 H  s                32     -0.969752   7 H  s         
     7     -0.819252   2 H  s                22      0.819252   5 H  s         
    17     -0.673897   4 H  s                37      0.673897   8 H  s         
     2      0.523397   1 H  s                27     -0.523397   6 H  s         
    78     -0.435624  11 C  py              138     -0.435624  15 C  py        

 Vector   35  Occ=0.000000D+00  E= 1.193355D-01  Symmetry=t1u
              MO Center=  1.4D-14, -3.1D-13, -5.5D-14, r^2= 9.6D+00
   Bfn.  Coefficient  Atom+Function         Bfn.  Coefficient  Atom+Function  
  ----- ------------  ---------------      ----- ------------  ---------------
     7      1.005088   2 H  s                22     -1.005088   5 H  s         
    17     -0.969306   4 H  s                37      0.969306   8 H  s         
     2     -0.459071   1 H  s                27      0.459071   6 H  s         
    62      0.436135  10 C  px              107      0.436135  13 C  px        
    92      0.427163  12 C  px              152      0.427163  16 C  px        

 Vector   36  Occ=0.000000D+00  E= 1.335963D-01  Symmetry=t2g
              MO Center=  2.3D-14,  2.1D-13, -1.0D-13, r^2= 1.1D+01
   Bfn.  Coefficient  Atom+Function         Bfn.  Coefficient  Atom+Function  
  ----- ------------  ---------------      ----- ------------  ---------------
    12      1.283425   3 H  s                32      1.283425   7 H  s         
    73     -1.079879  11 C  s               133     -1.079879  15 C  s         
     7     -0.879559   2 H  s                22     -0.879559   5 H  s         
    58      0.740065  10 C  s               103      0.740065  13 C  s         
     2     -0.720777   1 H  s                27     -0.720777   6 H  s         

 Vector   37  Occ=0.000000D+00  E= 1.335963D-01  Symmetry=t2g
              MO Center= -2.2D-15, -1.3D-14, -1.4D-13, r^2= 1.1D+01
   Bfn.  Coefficient  Atom+Function         Bfn.  Coefficient  Atom+Function  
  ----- ------------  ---------------      ----- ------------  ---------------
     7      1.220072   2 H  s                22      1.220072   5 H  s         
     2     -1.052965   1 H  s                27     -1.052965   6 H  s         
    58     -1.026573  10 C  s               103     -1.026573  13 C  s         
    43      0.885969   9 C  s               118      0.885969  14 C  s         
    17     -0.546956   4 H  s                37     -0.546956   8 H  s         

 Vector   38  Occ=0.000000D+00  E= 1.335963D-01  Symmetry=t2g
              MO Center= -3.5D-13,  1.2D-12,  7.2D-13, r^2= 1.1D+01
   Bfn.  Coefficient  Atom+Function         Bfn.  Coefficient  Atom+Function  
  ----- ------------  ---------------      ----- ------------  ---------------
    17      1.371486   4 H  s                37      1.371486   8 H  s         
    88     -1.153974  12 C  s               148     -1.153974  16 C  s         
     2     -0.807659   1 H  s                27     -0.807659   6 H  s         
    12     -0.699358   3 H  s                32     -0.699358   7 H  s         
    43      0.679567   9 C  s               118      0.679567  14 C  s         

 Vector   39  Occ=0.000000D+00  E= 1.495005D-01  Symmetry=a2u
              MO Center=  7.0D-13, -1.5D-12, -7.4D-13, r^2= 1.2D+01
   Bfn.  Coefficient  Atom+Function         Bfn.  Coefficient  Atom+Function  
  ----- ------------  ---------------      ----- ------------  ---------------
    43      4.431138   9 C  s                58      4.431138  10 C  s         
    73      4.431138  11 C  s                88      4.431138  12 C  s         
   103     -4.431138  13 C  s               118     -4.431138  14 C  s         
   133     -4.431138  15 C  s               148     -4.431138  16 C  s         
    47     -1.405277   9 C  px               48     -1.405277   9 C  py        

 Vector   40  Occ=0.000000D+00  E= 1.849436D-01  Symmetry=t1g
              MO Center=  5.9D-16,  3.7D-15,  3.0D-15, r^2= 3.9D+00
   Bfn.  Coefficient  Atom+Function         Bfn.  Coefficient  Atom+Function  
  ----- ------------  ---------------      ----- ------------  ---------------
    49      0.547280   9 C  pz               64     -0.547280  10 C  pz        
   109      0.547280  13 C  pz              124     -0.547280  14 C  pz        
    63     -0.482346  10 C  py               93      0.482346  12 C  py        
   108      0.482346  13 C  py              153     -0.482346  16 C  py        
    48     -0.460620   9 C  py               78      0.460620  11 C  py        

 Vector   41  Occ=0.000000D+00  E= 1.849436D-01  Symmetry=t1g
              MO Center= -6.7D-16,  4.4D-16, -7.6D-16, r^2= 3.9D+00
   Bfn.  Coefficient  Atom+Function         Bfn.  Coefficient  Atom+Function  
  ----- ------------  ---------------      ----- ------------  ---------------
    47      0.659869   9 C  px               92     -0.659869  12 C  px        
   122     -0.659869  14 C  px              152      0.659869  16 C  px        
    79      0.451911  11 C  pz               94     -0.451911  12 C  pz        
   139     -0.451911  15 C  pz              154      0.451911  16 C  pz        
    48     -0.344095   9 C  py               78      0.344095  11 C  py        

 Vector   42  Occ=0.000000D+00  E= 1.849436D-01  Symmetry=t1g
              MO Center= -3.3D-15,  1.4D-15, -2.4D-15, r^2= 3.9D+00
   Bfn.  Coefficient  Atom+Function         Bfn.  Coefficient  Atom+Function  
  ----- ------------  ---------------      ----- ------------  ---------------
    62      0.663685  10 C  px               77     -0.663685  11 C  px        
   107     -0.663685  13 C  px              137      0.663685  15 C  px        
    63     -0.424752  10 C  py               93      0.424752  12 C  py        
   108      0.424752  13 C  py              153     -0.424752  16 C  py        
    48      0.354609   9 C  py               78     -0.354609  11 C  py        

 Vector   43  Occ=0.000000D+00  E= 2.974405D-01  Symmetry=t2g
              MO Center= -7.6D-14, -1.3D-13,  1.0D-14, r^2= 5.5D+00
   Bfn.  Coefficient  Atom+Function         Bfn.  Coefficient  Atom+Function  
  ----- ------------  ---------------      ----- ------------  ---------------
    58      4.247661  10 C  s               103      4.247661  13 C  s         
    73     -3.495830  11 C  s               133     -3.495830  15 C  s         
    62      1.752627  10 C  px               77     -1.745756  11 C  px        
   107     -1.752627  13 C  px              137      1.745756  15 C  px        
    64     -1.182859  10 C  pz              109      1.182859  13 C  pz        

 Vector   44  Occ=0.000000D+00  E= 2.974405D-01  Symmetry=t2g
              MO Center=  6.3D-14, -2.6D-14,  2.1D-13, r^2= 5.5D+00
   Bfn.  Coefficient  Atom+Function         Bfn.  Coefficient  Atom+Function  
  ----- ------------  ---------------      ----- ------------  ---------------
    43      3.929175   9 C  s               118      3.929175  14 C  s         
    73     -3.265600  11 C  s               133     -3.265600  15 C  s         
    58     -1.883970  10 C  s               103     -1.883970  13 C  s         
    48     -1.628273   9 C  py               78      1.622209  11 C  py        
   123      1.628273  14 C  py              138     -1.622209  15 C  py        

 Vector   45  Occ=0.000000D+00  E= 2.974405D-01  Symmetry=t2g
              MO Center= -1.3D-13,  2.1D-13,  2.4D-13, r^2= 5.5D+00
   Bfn.  Coefficient  Atom+Function         Bfn.  Coefficient  Atom+Function  
  ----- ------------  ---------------      ----- ------------  ---------------
    88      4.673095  12 C  s               148      4.673095  16 C  s         
    43     -2.658661   9 C  s               118     -2.658661  14 C  s         
    92     -1.665390  12 C  px              152      1.665390  16 C  px        
    47      1.646978   9 C  px              122     -1.646978  14 C  px        
    93      1.370919  12 C  py              153     -1.370919  16 C  py        

 Vector   46  Occ=0.000000D+00  E= 3.174516D-01  Symmetry=eu
              MO Center=  1.4D-13,  7.9D-14, -3.1D-14, r^2= 4.2D+00
   Bfn.  Coefficient  Atom+Function         Bfn.  Coefficient  Atom+Function  
  ----- ------------  ---------------      ----- ------------  ---------------
    49      0.913700   9 C  pz               64      0.913700  10 C  pz        
    79     -0.913700  11 C  pz               94     -0.913700  12 C  pz        
   109      0.913700  13 C  pz              124      0.913700  14 C  pz        
   139     -0.913700  15 C  pz              154     -0.913700  16 C  pz        
    48     -0.507179   9 C  py               63      0.507179  10 C  py        

 Vector   47  Occ=0.000000D+00  E= 3.174516D-01  Symmetry=eu
              MO Center=  2.2D-14, -2.2D-14,  1.6D-15, r^2= 4.2D+00
   Bfn.  Coefficient  Atom+Function         Bfn.  Coefficient  Atom+Function  
  ----- ------------  ---------------      ----- ------------  ---------------
    47      0.820345   9 C  px               62     -0.820345  10 C  px        
    77     -0.820345  11 C  px               92      0.820345  12 C  px        
   107     -0.820345  13 C  px              122      0.820345  14 C  px        
   137     -0.820345  15 C  px              152      0.820345  16 C  px        
    48     -0.762230   9 C  py               63      0.762230  10 C  py        

 Vector   48  Occ=0.000000D+00  E= 3.287552D-01  Symmetry=a1g
              MO Center=  1.2D-15, -1.2D-15, -8.9D-16, r^2= 6.1D+00
   Bfn.  Coefficient  Atom+Function         Bfn.  Coefficient  Atom+Function  
  ----- ------------  ---------------      ----- ------------  ---------------
     1      0.346061   1 H  s                 6      0.346061   2 H  s         
    11      0.346061   3 H  s                16      0.346061   4 H  s         
    21      0.346061   5 H  s                26      0.346061   6 H  s         
    31      0.346061   7 H  s                36      0.346061   8 H  s         
    43     -0.248005   9 C  s                58     -0.248005  10 C  s         

 Vector   49  Occ=0.000000D+00  E= 4.452967D-01  Symmetry=eg
              MO Center= -1.1D-14, -4.4D-15, -7.2D-15, r^2= 4.6D+00
   Bfn.  Coefficient  Atom+Function         Bfn.  Coefficient  Atom+Function  
  ----- ------------  ---------------      ----- ------------  ---------------
    46      0.251141   9 C  pz               61      0.251141  10 C  pz        
    76     -0.251141  11 C  pz               91     -0.251141  12 C  pz        
   106     -0.251141  13 C  pz              121     -0.251141  14 C  pz        
   136      0.251141  15 C  pz              151      0.251141  16 C  pz        
    49     -0.235693   9 C  pz               64     -0.235693  10 C  pz        

 Vector   50  Occ=0.000000D+00  E= 4.452967D-01  Symmetry=eg
              MO Center= -1.8D-16,  3.1D-16,  1.9D-17, r^2= 4.6D+00
   Bfn.  Coefficient  Atom+Function         Bfn.  Coefficient  Atom+Function  
  ----- ------------  ---------------      ----- ------------  ---------------
    45     -0.226243   9 C  py               60      0.226243  10 C  py        
    75     -0.226243  11 C  py               90      0.226243  12 C  py        
   105     -0.226243  13 C  py              120      0.226243  14 C  py        
   135      0.226243  15 C  py              150     -0.226243  16 C  py        
    48      0.212327   9 C  py               63     -0.212327  10 C  py        

 Vector   51  Occ=0.000000D+00  E= 4.775657D-01  Symmetry=t1u
              MO Center= -8.6D-16,  0.0D+00, -8.6D-16, r^2= 5.1D+00
   Bfn.  Coefficient  Atom+Function         Bfn.  Coefficient  Atom+Function  
  ----- ------------  ---------------      ----- ------------  ---------------
     1      0.534428   1 H  s                26     -0.534428   6 H  s         
    49     -0.388798   9 C  pz              124     -0.388798  14 C  pz        
    94     -0.338037  12 C  pz              154     -0.338037  16 C  pz        
    16     -0.333963   4 H  s                36      0.333963   8 H  s         
    79     -0.318701  11 C  pz              139     -0.318701  15 C  pz        

 Vector   52  Occ=0.000000D+00  E= 4.775657D-01  Symmetry=t1u
              MO Center= -1.6D-16,  3.6D-16, -4.5D-16, r^2= 5.1D+00
   Bfn.  Coefficient  Atom+Function         Bfn.  Coefficient  Atom+Function  
  ----- ------------  ---------------      ----- ------------  ---------------
    11      0.523362   3 H  s                31     -0.523362   7 H  s         
    16     -0.430869   4 H  s                36      0.430869   8 H  s         
    78     -0.353370  11 C  py              138     -0.353370  15 C  py        
    93     -0.329949  12 C  py              153     -0.329949  16 C  py        
    77      0.320544  11 C  px              137      0.320544  15 C  px        

 Vector   53  Occ=0.000000D+00  E= 4.775657D-01  Symmetry=t1u
              MO Center=  6.9D-15,  1.5D-15,  6.2D-15, r^2= 5.1D+00
   Bfn.  Coefficient  Atom+Function         Bfn.  Coefficient  Atom+Function  
  ----- ------------  ---------------      ----- ------------  ---------------
     6      0.582806   2 H  s                21     -0.582806   5 H  s         
    62      0.354858  10 C  px              107      0.354858  13 C  px        
    63      0.298748  10 C  py              108      0.298748  13 C  py        
    64     -0.288560  10 C  pz              109     -0.288560  13 C  pz        
    58      0.278986  10 C  s               103     -0.278986  13 C  s         

 Vector   54  Occ=0.000000D+00  E= 4.910166D-01  Symmetry=t2u
              MO Center=  6.2D-15,  6.5D-15,  4.1D-15, r^2= 5.3D+00
   Bfn.  Coefficient  Atom+Function         Bfn.  Coefficient  Atom+Function  
  ----- ------------  ---------------      ----- ------------  ---------------
    49      0.457437   9 C  pz               64     -0.457437  10 C  pz        
   109     -0.457437  13 C  pz              124      0.457437  14 C  pz        
    48     -0.301375   9 C  py               78      0.301375  11 C  py        
   123     -0.301375  14 C  py              138      0.301375  15 C  py        
    46     -0.291218   9 C  pz               61      0.291218  10 C  pz        

 Vector   55  Occ=0.000000D+00  E= 4.910166D-01  Symmetry=t2u
              MO Center= -1.9D-14,  1.8D-14, -1.3D-14, r^2= 5.3D+00
   Bfn.  Coefficient  Atom+Function         Bfn.  Coefficient  Atom+Function  
  ----- ------------  ---------------      ----- ------------  ---------------
    62      0.440737  10 C  px               77     -0.440737  11 C  px        
   107      0.440737  13 C  px              137     -0.440737  15 C  px        
    63     -0.354909  10 C  py               93      0.354909  12 C  py        
   108     -0.354909  13 C  py              153      0.354909  16 C  py        
    79      0.335931  11 C  pz               94     -0.335931  12 C  pz        

 Vector   56  Occ=0.000000D+00  E= 4.910166D-01  Symmetry=t2u
              MO Center= -2.3D-15,  1.7D-14,  1.0D-14, r^2= 5.3D+00
   Bfn.  Coefficient  Atom+Function         Bfn.  Coefficient  Atom+Function  
  ----- ------------  ---------------      ----- ------------  ---------------
    47      0.448519   9 C  px               92     -0.448519  12 C  px        
   122      0.448519  14 C  px              152     -0.448519  16 C  px        
    48     -0.352241   9 C  py               78      0.352241  11 C  py        
   123     -0.352241  14 C  py              138      0.352241  15 C  py        
    79      0.310712  11 C  pz               94     -0.310712  12 C  pz        

 Vector   57  Occ=0.000000D+00  E= 5.032429D-01  Symmetry=a2u
              MO Center= -4.9D-13, -4.0D-13,  1.0D-13, r^2= 8.0D+00
   Bfn.  Coefficient  Atom+Function         Bfn.  Coefficient  Atom+Function  
  ----- ------------  ---------------      ----- ------------  ---------------
    43     17.541509   9 C  s                58     17.541509  10 C  s         
    73     17.541509  11 C  s                88     17.541509  12 C  s         
   103    -17.541509  13 C  s               118    -17.541509  14 C  s         
   133    -17.541509  15 C  s               148    -17.541509  16 C  s         
    47     -4.303454   9 C  px               48     -4.303454   9 C  py        


 center of mass
 --------------
 x =   0.00000000 y =   0.00000000 z =   0.00000000

 moments of inertia (a.u.)
 ------------------
         537.762973298094           0.000000000000           0.000000000000
           0.000000000000         537.762973298094           0.000000000000
           0.000000000000           0.000000000000         537.762973298094

     Multipole analysis of the density
     ---------------------------------

     L   x y z        total         alpha         beta         nuclear
     -   - - -        -----         -----         ----         -------
     0   0 0 0     -0.000000    -28.000000    -28.000000     56.000000

     1   1 0 0     -0.000000     -0.000000     -0.000000      0.000000
     1   0 1 0     -0.000000     -0.000000     -0.000000      0.000000
     1   0 0 1      0.000000      0.000000      0.000000      0.000000

     2   2 0 0    -34.990873    -98.984402    -98.984402    162.977932
     2   1 1 0     -0.000000     -0.000000     -0.000000      0.000000
     2   1 0 1      0.000000      0.000000      0.000000      0.000000
     2   0 2 0    -34.990873    -98.984402    -98.984402    162.977932
     2   0 1 1     -0.000000     -0.000000     -0.000000      0.000000
     2   0 0 2    -34.990873    -98.984402    -98.984402    162.977932


 Parallel integral file used      65 records with       0 large values



                            NWChem DFT Gradient Module
                            --------------------------


                     cubane def2-SVP DFT geometry optimization



  charge          =   0.00
  wavefunction    = closed shell

  Using symmetry


                         DFT ENERGY GRADIENTS

    atom               coordinates                        gradient
                 x          y          z           x          y          z
   1 H       2.681523   2.681523   2.681523    0.000122   0.000122   0.000122
   2 H      -2.681523  -2.681523   2.681523   -0.000122  -0.000122   0.000122
   3 H      -2.681523   2.681523  -2.681523   -0.000122   0.000122  -0.000122
   4 H       2.681523  -2.681523  -2.681523    0.000122  -0.000122  -0.000122
   5 H       2.681523   2.681523  -2.681523    0.000122   0.000122  -0.000122
   6 H      -2.681523  -2.681523  -2.681523   -0.000122  -0.000122  -0.000122
   7 H       2.681523  -2.681523   2.681523    0.000122  -0.000122   0.000122
   8 H      -2.681523   2.681523   2.681523   -0.000122   0.000122   0.000122
   9 C       1.482210   1.482210   1.482210   -0.000086  -0.000086  -0.000086
  10 C      -1.482210  -1.482210   1.482210    0.000086   0.000086  -0.000086
  11 C      -1.482210   1.482210  -1.482210    0.000086  -0.000086   0.000086
  12 C       1.482210  -1.482210  -1.482210   -0.000086   0.000086   0.000086
  13 C       1.482210   1.482210  -1.482210   -0.000086  -0.000086   0.000086
  14 C      -1.482210  -1.482210  -1.482210    0.000086   0.000086   0.000086
  15 C       1.482210  -1.482210   1.482210   -0.000086   0.000086  -0.000086
  16 C      -1.482210   1.482210   1.482210    0.000086  -0.000086  -0.000086

                 ----------------------------------------
                 |  Time  |  1-e(secs)   |  2-e(secs)   |
                 ----------------------------------------
                 |  CPU   |       0.00   |       1.61   |
                 ----------------------------------------
                 |  WALL  |       0.00   |       2.23   |
                 ----------------------------------------

@ Step       Energy      Delta E   Gmax     Grms     Xrms     Xmax   Walltime
@ ---- ---------------- -------- -------- -------- -------- -------- --------
@    0    -309.25671789  0.0D+00  0.00021  0.00005  0.00000  0.00000     10.5
                                     ok       ok       ok       ok  



                                Z-matrix (autoz)
                                -------- 

 Units are Angstrom for bonds and degrees for angles

      Type          Name      I     J     K     L     M      Value     Gradient
      ----------- --------  ----- ----- ----- ----- ----- ---------- ----------
    1 Stretch                  1     9                       1.09924    0.00021
    2 Stretch                  2    10                       1.09924    0.00021
    3 Stretch                  3    11                       1.09924    0.00021
    4 Stretch                  4    12                       1.09924    0.00021
    5 Stretch                  5    13                       1.09924    0.00021
    6 Stretch                  6    14                       1.09924    0.00021
    7 Stretch                  7    15                       1.09924    0.00021
    8 Stretch                  8    16                       1.09924    0.00021
    9 Stretch                  9    13                       1.56870    0.00004
   10 Stretch                  9    15                       1.56870    0.00004
   11 Stretch                  9    16                       1.56870    0.00004
   12 Stretch                 10    14                       1.56870    0.00004
   13 Stretch                 10    15                       1.56870    0.00004
   14 Stretch                 10    16                       1.56870    0.00004
   15 Stretch                 11    13                       1.56870    0.00004
   16 Stretch                 11    14                       1.56870    0.00004
   17 Stretch                 11    16                       1.56870    0.00004
   18 Stretch                 12    13                       1.56870    0.00004
   19 Stretch                 12    14                       1.56870    0.00004
   20 Stretch                 12    15                       1.56870    0.00004
   21 Bend                     1     9    13               125.26439   -0.00000
   22 Bend                     1     9    15               125.26439   -0.00000
   23 Bend                     1     9    16               125.26439   -0.00000
   24 Bend                     2    10    14               125.26439    0.00000
   25 Bend                     2    10    15               125.26439   -0.00000
   26 Bend                     2    10    16               125.26439    0.00000
   27 Bend                     3    11    13               125.26439    0.00000
   28 Bend                     3    11    14               125.26439   -0.00000
   29 Bend                     3    11    16               125.26439   -0.00000
   30 Bend                     4    12    13               125.26439   -0.00000
   31 Bend                     4    12    14               125.26439    0.00000
   32 Bend                     4    12    15               125.26439   -0.00000
   33 Bend                     5    13     9               125.26439   -0.00000
   34 Bend                     5    13    11               125.26439   -0.00000
   35 Bend                     5    13    12               125.26439    0.00000
   36 Bend                     6    14    10               125.26439    0.00000
   37 Bend                     6    14    11               125.26439   -0.00000
   38 Bend                     6    14    12               125.26439    0.00000
   39 Bend                     7    15     9               125.26439    0.00000
   40 Bend                     7    15    10               125.26439    0.00000
[...]
   51 Bend                    10    14    11                90.00000    0.00000
   52 Bend                    10    14    12                90.00000    0.00000
   53 Bend                    10    15    12                90.00000    0.00000
   54 Bend                    10    16    11                90.00000    0.00000
   55 Bend                    11    13    12                90.00000    0.00000
   56 Bend                    11    14    12                90.00000    0.00000
   57 Bend                    13     9    15                90.00000    0.00000
   58 Bend                    13     9    16                90.00000    0.00000
   59 Bend                    13    11    14                90.00000    0.00000
   60 Bend                    13    11    16                90.00000    0.00000
   61 Bend                    13    12    14                90.00000    0.00000
   62 Bend                    13    12    15                90.00000    0.00000
   63 Bend                    14    10    15                90.00000    0.00000
   64 Bend                    14    10    16                90.00000    0.00000
   65 Bend                    14    11    16                90.00000    0.00000
   66 Bend                    14    12    15                90.00000    0.00000
   67 Bend                    15     9    16                90.00000    0.00000
   68 Bend                    15    10    16                90.00000    0.00000
   69 Torsion                  1     9    13     5           0.00000    0.00000
   70 Torsion                  1     9    13    11        -135.00000   -0.00000
   71 Torsion                  1     9    13    12         135.00000    0.00000
   72 Torsion                  1     9    15     7           0.00000    0.00000
   73 Torsion                  1     9    15    10         135.00000    0.00000
   74 Torsion                  1     9    15    12        -135.00000   -0.00000
   75 Torsion                  1     9    16     8           0.00000    0.00000
   76 Torsion                  1     9    16    10        -135.00000   -0.00000
   77 Torsion                  1     9    16    11         135.00000    0.00000
   78 Torsion                  2    10    14     6           0.00000    0.00000
   79 Torsion                  2    10    14    11         135.00000    0.00000
   80 Torsion                  2    10    14    12        -135.00000   -0.00000
   81 Torsion                  2    10    15     7           0.00000    0.00000
   82 Torsion                  2    10    15     9        -135.00000   -0.00000
   83 Torsion                  2    10    15    12         135.00000    0.00000
   84 Torsion                  2    10    16     8           0.00000    0.00000
   85 Torsion                  2    10    16     9         135.00000    0.00000
   86 Torsion                  2    10    16    11        -135.00000   -0.00000
   87 Torsion                  3    11    13     5           0.00000    0.00000
   88 Torsion                  3    11    13     9         135.00000    0.00000
   89 Torsion                  3    11    13    12        -135.00000   -0.00000
   90 Torsion                  3    11    14     6           0.00000    0.00000
   91 Torsion                  3    11    14    10        -135.00000   -0.00000
   92 Torsion                  3    11    14    12         135.00000    0.00000
   93 Torsion                  3    11    16     8           0.00000    0.00000
   94 Torsion                  3    11    16     9        -135.00000   -0.00000
   95 Torsion                  3    11    16    10         135.00000    0.00000
   96 Torsion                  4    12    13     5           0.00000    0.00000
   97 Torsion                  4    12    13     9        -135.00000   -0.00000
   98 Torsion                  4    12    13    11         135.00000    0.00000
   99 Torsion                  4    12    14     6           0.00000    0.00000
  100 Torsion                  4    12    14    10         135.00000    0.00000
  101 Torsion                  4    12    14    11        -135.00000   -0.00000
  102 Torsion                  4    12    15     7           0.00000    0.00000
  103 Torsion                  4    12    15     9         135.00000    0.00000
  104 Torsion                  4    12    15    10        -135.00000   -0.00000
  105 Torsion                  5    13     9    15        -135.00000   -0.00000
  106 Torsion                  5    13     9    16         135.00000    0.00000
  107 Torsion                  5    13    11    14         135.00000    0.00000
  108 Torsion                  5    13    11    16        -135.00000   -0.00000
  109 Torsion                  5    13    12    14        -135.00000   -0.00000
  110 Torsion                  5    13    12    15         135.00000    0.00000
  111 Torsion                  6    14    10    15         135.00000    0.00000
  112 Torsion                  6    14    10    16        -135.00000   -0.00000
  113 Torsion                  6    14    11    13        -135.00000   -0.00000
  114 Torsion                  6    14    11    16         135.00000    0.00000
  115 Torsion                  6    14    12    13         135.00000    0.00000
  116 Torsion                  6    14    12    15        -135.00000   -0.00000
  117 Torsion                  7    15     9    13         135.00000    0.00000
  118 Torsion                  7    15     9    16        -135.00000   -0.00000
  119 Torsion                  7    15    10    14        -135.00000   -0.00000
  120 Torsion                  7    15    10    16         135.00000    0.00000
  121 Torsion                  7    15    12    13        -135.00000   -0.00000
  122 Torsion                  7    15    12    14         135.00000    0.00000
  123 Torsion                  8    16     9    13        -135.00000   -0.00000
  124 Torsion                  8    16     9    15         135.00000    0.00000
  125 Torsion                  8    16    10    14         135.00000    0.00000
  126 Torsion                  8    16    10    15        -135.00000   -0.00000
  127 Torsion                  8    16    11    13         135.00000    0.00000
  128 Torsion                  8    16    11    14        -135.00000   -0.00000
  129 Torsion                  9    13    11    14         -90.00000    0.00000
  130 Torsion                  9    13    11    16           0.00000    0.00000
  131 Torsion                  9    13    12    14          90.00000    0.00000
  132 Torsion                  9    13    12    15           0.00000    0.00000
  133 Torsion                  9    15    10    14          90.00000    0.00000
  134 Torsion                  9    15    10    16           0.00000    0.00000
  135 Torsion                  9    15    12    13           0.00000    0.00000
  136 Torsion                  9    15    12    14         -90.00000    0.00000
  137 Torsion                  9    16    10    14         -90.00000    0.00000
  138 Torsion                  9    16    10    15           0.00000    0.00000
  139 Torsion                  9    16    11    13           0.00000    0.00000
  140 Torsion                  9    16    11    14          90.00000    0.00000
  141 Torsion                 10    14    11    13          90.00000    0.00000
  142 Torsion                 10    14    11    16           0.00000    0.00000
  143 Torsion                 10    14    12    13         -90.00000    0.00000
  144 Torsion                 10    14    12    15           0.00000    0.00000
  145 Torsion                 10    15     9    13         -90.00000    0.00000
  146 Torsion                 10    15     9    16           0.00000    0.00000
  147 Torsion                 10    15    12    13          90.00000    0.00000
  148 Torsion                 10    15    12    14           0.00000    0.00000
  149 Torsion                 10    16     9    13          90.00000    0.00000
  150 Torsion                 10    16     9    15           0.00000    0.00000
  151 Torsion                 10    16    11    13         -90.00000    0.00000
  152 Torsion                 10    16    11    14           0.00000    0.00000
  153 Torsion                 11    13     9    15          90.00000    0.00000
  154 Torsion                 11    13     9    16           0.00000    0.00000
  155 Torsion                 11    13    12    14           0.00000    0.00000
  156 Torsion                 11    13    12    15         -90.00000    0.00000
  157 Torsion                 11    14    10    15         -90.00000    0.00000
  158 Torsion                 11    14    10    16           0.00000    0.00000
  159 Torsion                 11    14    12    13           0.00000    0.00000
  160 Torsion                 11    14    12    15          90.00000    0.00000
  161 Torsion                 11    16     9    13           0.00000    0.00000
  162 Torsion                 11    16     9    15         -90.00000    0.00000
  163 Torsion                 11    16    10    14           0.00000    0.00000
  164 Torsion                 11    16    10    15          90.00000    0.00000
  165 Torsion                 12    13     9    15           0.00000    0.00000
  166 Torsion                 12    13     9    16         -90.00000    0.00000
  167 Torsion                 12    13    11    14           0.00000    0.00000
  168 Torsion                 12    13    11    16          90.00000    0.00000
  169 Torsion                 12    14    10    15           0.00000    0.00000
  170 Torsion                 12    14    10    16          90.00000    0.00000
  171 Torsion                 12    14    11    13           0.00000    0.00000
  172 Torsion                 12    14    11    16         -90.00000    0.00000
  173 Torsion                 12    15     9    13           0.00000    0.00000
  174 Torsion                 12    15     9    16          90.00000    0.00000
  175 Torsion                 12    15    10    14           0.00000    0.00000
  176 Torsion                 12    15    10    16         -90.00000    0.00000

 ==============================================================================
                                internuclear distances
 ------------------------------------------------------------------------------
       center one      |      center two      | atomic units |  angstroms
 ------------------------------------------------------------------------------
    9 C                |   1 H                |     2.07665  |     1.09892
   10 C                |   2 H                |     2.07665  |     1.09892
   11 C                |   3 H                |     2.07665  |     1.09892
   12 C                |   4 H                |     2.07665  |     1.09892
   13 C                |   5 H                |     2.07665  |     1.09892
   13 C                |   9 C                |     2.96431  |     1.56865
   13 C                |  11 C                |     2.96431  |     1.56865
   13 C                |  12 C                |     2.96431  |     1.56865
   14 C                |   6 H                |     2.07665  |     1.09892
   14 C                |  10 C                |     2.96431  |     1.56865
   14 C                |  11 C                |     2.96431  |     1.56865
   14 C                |  12 C                |     2.96431  |     1.56865
   15 C                |   7 H                |     2.07665  |     1.09892
   15 C                |   9 C                |     2.96431  |     1.56865
   15 C                |  10 C                |     2.96431  |     1.56865
   15 C                |  12 C                |     2.96431  |     1.56865
   16 C                |   8 H                |     2.07665  |     1.09892
   16 C                |   9 C                |     2.96431  |     1.56865
   16 C                |  10 C                |     2.96431  |     1.56865
   16 C                |  11 C                |     2.96431  |     1.56865
 ------------------------------------------------------------------------------
                         number of included internuclear distances:         20
 ==============================================================================



 ==============================================================================
                                 internuclear angles
 ------------------------------------------------------------------------------
        center 1       |       center 2       |       center 3       |  degrees
 ------------------------------------------------------------------------------
    1 H                |   9 C                |  13 C                |   125.26
    1 H                |   9 C                |  15 C                |   125.26
    1 H                |   9 C                |  16 C                |   125.26
   13 C                |   9 C                |  15 C                |    90.00
   13 C                |   9 C                |  16 C                |    90.00
   15 C                |   9 C                |  16 C                |    90.00
    2 H                |  10 C                |  14 C                |   125.26
    2 H                |  10 C                |  15 C                |   125.26
    2 H                |  10 C                |  16 C                |   125.26
   14 C                |  10 C                |  15 C                |    90.00
   14 C                |  10 C                |  16 C                |    90.00
   15 C                |  10 C                |  16 C                |    90.00
    3 H                |  11 C                |  13 C                |   125.26
    3 H                |  11 C                |  14 C                |   125.26
    3 H                |  11 C                |  16 C                |   125.26
   13 C                |  11 C                |  14 C                |    90.00
   13 C                |  11 C                |  16 C                |    90.00
   14 C                |  11 C                |  16 C                |    90.00
    4 H                |  12 C                |  13 C                |   125.26
    4 H                |  12 C                |  14 C                |   125.26
    4 H                |  12 C                |  15 C                |   125.26
   13 C                |  12 C                |  14 C                |    90.00
   13 C                |  12 C                |  15 C                |    90.00
   14 C                |  12 C                |  15 C                |    90.00
    5 H                |  13 C                |   9 C                |   125.26
    5 H                |  13 C                |  11 C                |   125.26
    5 H                |  13 C                |  12 C                |   125.26
    9 C                |  13 C                |  11 C                |    90.00
    9 C                |  13 C                |  12 C                |    90.00
   11 C                |  13 C                |  12 C                |    90.00
    6 H                |  14 C                |  10 C                |   125.26
    6 H                |  14 C                |  11 C                |   125.26
    6 H                |  14 C                |  12 C                |   125.26
   10 C                |  14 C                |  11 C                |    90.00
   10 C                |  14 C                |  12 C                |    90.00
   11 C                |  14 C                |  12 C                |    90.00
    7 H                |  15 C                |   9 C                |   125.26
    7 H                |  15 C                |  10 C                |   125.26
    7 H                |  15 C                |  12 C                |   125.26
    9 C                |  15 C                |  10 C                |    90.00
    9 C                |  15 C                |  12 C                |    90.00
   10 C                |  15 C                |  12 C                |    90.00
    8 H                |  16 C                |   9 C                |   125.26
    8 H                |  16 C                |  10 C                |   125.26
    8 H                |  16 C                |  11 C                |   125.26
    9 C                |  16 C                |  10 C                |    90.00
    9 C                |  16 C                |  11 C                |    90.00
   10 C                |  16 C                |  11 C                |    90.00
 ------------------------------------------------------------------------------
                            number of included internuclear angles:         48
 ==============================================================================




 Task  times  cpu:       10.8s     wall:       14.9s


                                NWChem Input Module
                                -------------------


 Summary of allocated global arrays
-----------------------------------
  No active global arrays



                         GA Statistics for process    0
                         ------------------------------

       create   destroy   get      put      acc     scatter   gather  read&inc
calls:  316      316     5.92e+04 1.71e+04 1.09e+05    0        0     3323     
number of processes/call 1.00e+00 1.01e+00 1.00e+00 0.00e+00 0.00e+00
bytes total:             1.61e+08 4.91e+07 1.29e+08 0.00e+00 0.00e+00 2.66e+04
bytes remote:            2.82e+07 7.95e+06 1.39e+07 0.00e+00 0.00e+00 0.00e+00
Max memory consumed for GA by this process: 7372800 bytes

MA_summarize_allocated_blocks: starting scan ...
MA_summarize_allocated_blocks: scan completed: 0 heap blocks, 0 stack blocks
MA usage statistics:

	allocation statistics:
					      heap	     stack
					      ----	     -----
	current number of blocks	         0	         0
	maximum number of blocks	        25	        51
	current total bytes		         0	         0
	maximum total bytes		  19823136	  33080872
	maximum total K-bytes		     19824	     33081
	maximum total M-bytes		        20	        34


                                     CITATION
                                     --------
                Please cite the following reference when publishing
                           results obtained with NWChem:

                 M. Valiev, E.J. Bylaska, N. Govind, K. Kowalski,
              T.P. Straatsma, H.J.J. van Dam, D. Wang, J. Nieplocha,
                        E. Apra, T.L. Windus, W.A. de Jong
                 "NWChem: a comprehensive and scalable open-source
                  solution for large scale molecular simulations"
                      Comput. Phys. Commun. 181, 1477 (2010)
                           doi:10.1016/j.cpc.2010.04.018

                              AUTHORS & CONTRIBUTORS
                              ----------------------
          E. Apra, E. J. Bylaska, W. A. de Jong, N. Govind, K. Kowalski,
       T. P. Straatsma, M. Valiev, H. J. J. van Dam, D. Wang, T. L. Windus,
        J. Hammond, J. Autschbach, K. Bhaskaran-Nair, J. Brabec, K. Lopata,
     F. Aquino, S. Hirata, M. T. Hackler, J. Mullin, P. Nichols, R. Peverati,
    J. Pittner, Y. Zhao, P.-D. Fan, R. J. Harrison, M. Dupuis, D. Silverstein,
    D. M. A. Smith, J. Nieplocha, V. Tipparaju, M. Krishnan, B. E. Van Kuiken,
        A. Vazquez-Mayagoitia, L. Jensen, M. Swart, Q. Wu, T. Van Voorhis,
     A. A. Auer, M. Nooijen, L. D. Crosby, E. Brown, G. Cisneros, G. I. Fann,
     H. Fruchtl, J. Garza, K. Hirao, R. Kendall, J. A. Nichols, K. Tsemekhman,
      K. Wolinski, J. Anchell, D. Bernholdt, P. Borowski, T. Clark, D. Clerc,
      H. Dachsel, M. Deegan, K. Dyall, D. Elwood, E. Glendening, M. Gutowski,
      A. Hess, J. Jaffe, B. Johnson, J. Ju, R. Kobayashi, R. Kutteh, Z. Lin,
   R. Littlefield, X. Long, B. Meng, T. Nakajima, S. Niu, L. Pollack, M. Rosing,
   K. Glaesemann, G. Sandrone, M. Stave, H. Taylor, G. Thomas, J. H. van Lenthe,
                                A. Wong, Z. Zhang.

 Total times  cpu:       10.9s     wall:       16.5s
