 argument  1 = cubane.nw
                                         
                                         


              Northwest Computational Chemistry Package (NWChem) 6.6
              ------------------------------------------------------


                    Environmental Molecular Sciences Laboratory
                       Pacific Northwest National Laboratory
                                Richland, WA 99352

                              Copyright (c) 1994-2015
                       Pacific Northwest National Laboratory
                            Battelle Memorial Institute

             NWChem is an open-source computational chemistry package
                        distributed under the terms of the
                      Educational Community License (ECL) 2.0
             A copy of the license is included with this distribution
                              in the LICENSE.TXT file

                                  ACKNOWLEDGMENT
                                  --------------

            This software and its documentation were developed at the
            EMSL at Pacific Northwest National Laboratory, a multiprogram
            national laboratory, operated for the U.S. Department of Energy
            by Battelle under Contract Number DE-AC05-76RL01830. Support
            for this work was provided by the Department of Energy Office
            of Biological and Environmental Research, Office of Basic
            Energy Sciences, and the Office of Advanced Scientific Computing.


           Job information
           ---------------

    hostname        = konkov-work
    program         = nwchem
    date            = Mon Feb  6 15:52:20 2017

    compiled        = Пн_фев_06_13:51:48_2017
    source          = /home/vladimir/bin/nwchem_source/nwchem-6.6+r27746
    nwchem branch   = 6.6
    nwchem revision = 27746
    ga revision     = 10594
    input           = cubane.nw
    prefix          = cubane.
    data base       = ./cubane.db
    status          = startup
    nproc           =        1
    time left       =     -1s



           Memory information
           ------------------

    heap     =   13107200 doubles =    100.0 Mbytes
    stack    =   52428797 doubles =    400.0 Mbytes
    global   =  131072000 doubles =   1000.0 Mbytes (distinct from heap & stack)
    total    =  196607997 doubles =   1500.0 Mbytes
    verify   = yes
    hardfail = no 


           Directory information
           ---------------------

  0 permanent = .
  0 scratch   = /opt/scratch




                                NWChem Input Module
                                -------------------


                      cubane MK-CCSD(2,2)/cc-pVTZ calculation
                      ---------------------------------------

 Scaling coordinates for geometry "geometry" by  1.889725989
 (inverse scale =  0.529177249)

 Turning off AUTOSYM since
 SYMMETRY directive was detected!


          ------
          auto-z
          ------


                             Geometry "geometry" -> ""
                             -------------------------

 Output coordinates in angstroms (scale by  1.889725989 to convert to a.u.)

  No.       Tag          Charge          X              Y              Z
 ---- ---------------- ---------- -------------- -------------- --------------
    1 H                    1.0000     2.05734129    -1.32981120     0.02496975
    2 C                    6.0000     1.09520984    -0.79607173    -0.03872781
    3 H                    1.0000     2.05734129     1.32981120     0.02496975
    4 C                    6.0000     1.09520984     0.79607173    -0.03872781
    5 H                    1.0000     0.00000000    -1.59258557    -2.05035613
    6 C                    6.0000     0.00000000    -1.20794408    -1.02589690
    7 H                    1.0000     0.00000000     1.59258557    -2.05035613
    8 C                    6.0000     0.00000000     1.20794408    -1.02589690
    9 H                    1.0000     0.00000000    -1.45028854     1.97989593
   10 C                    6.0000     0.00000000    -0.78106969     1.10677262
   11 H                    1.0000     0.00000000     1.45028854     1.97989593
   12 C                    6.0000     0.00000000     0.78106969     1.10677262
   13 H                    1.0000    -2.05734129    -1.32981120     0.02496975
   14 C                    6.0000    -1.09520984    -0.79607173    -0.03872781
   15 H                    1.0000    -2.05734129     1.32981120     0.02496975
   16 C                    6.0000    -1.09520984     0.79607173    -0.03872781

      Atomic Mass 
      ----------- 

      H                  1.007825
      C                 12.000000


 Effective nuclear repulsion energy (a.u.)     357.6009661586

            Nuclear Dipole moment (a.u.) 
            ----------------------------
        X                 Y               Z
 ---------------- ---------------- ----------------
     0.0000000000    -0.0000000000    -0.0000000000

      Symmetry information
      --------------------

 Group name             C2v       
 Group number             16
 Group order               4
 No. of unique centers     6

      Symmetry unique atoms

     1    2    5    6    9   10



                                Z-matrix (autoz)
                                -------- 

 Units are Angstrom for bonds and degrees for angles

      Type          Name      I     J     K     L     M      Value
      ----------- --------  ----- ----- ----- ----- ----- ----------
    1 Stretch                  1     2                       1.10210
    2 Stretch                  2     4                       1.59214
    3 Stretch                  2     6                       1.53089
    4 Stretch                  2    10                       1.58489
    5 Stretch                  3     4                       1.10210
    6 Stretch                  4     8                       1.53089
    7 Stretch                  4    12                       1.58489
    8 Stretch                  5     6                       1.09429
    9 Stretch                  6    14                       1.53089
   10 Stretch                  7     8                       1.09429
   11 Stretch                  8    16                       1.53089
   12 Stretch                  9    10                       1.10009
   13 Stretch                 10    12                       1.56214
   14 Stretch                 10    14                       1.58489
   15 Stretch                 11    12                       1.10009
   16 Stretch                 12    16                       1.58489
   17 Stretch                 13    14                       1.10210
   18 Stretch                 14    16                       1.59214
   19 Stretch                 15    16                       1.10210
   20 Bend                     1     2     4               118.96607
   21 Bend                     1     2     6               122.10833
   22 Bend                     1     2    10               124.47722
   23 Bend                     2     4     3               118.96607
   24 Bend                     2     4     8               105.60721
   25 Bend                     2     4    12                89.45765
   26 Bend                     2     6     5               134.28700
   27 Bend                     2     6    14                91.35312
   28 Bend                     2    10     9               124.60298
   29 Bend                     2    10    12                90.54235
   30 Bend                     2    10    14                87.42363
   31 Bend                     3     4     8               122.10833
   32 Bend                     3     4    12               124.47722
   33 Bend                     4     2     6               105.60721
   34 Bend                     4     2    10                89.45765
   35 Bend                     4     8     7               134.28700
   36 Bend                     4     8    16                91.35312
   37 Bend                     4    12    10                90.54235
   38 Bend                     4    12    11               124.60298
   39 Bend                     4    12    16                87.42363
   40 Bend                     5     6    14               134.28700
   41 Bend                     6     2    10                88.52386
   42 Bend                     6    14    10                88.52386
   43 Bend                     6    14    13               122.10833
   44 Bend                     6    14    16               105.60721
   45 Bend                     7     8    16               134.28700
   46 Bend                     8     4    12                88.52386
   47 Bend                     8    16    12                88.52386
   48 Bend                     8    16    14               105.60721
   49 Bend                     8    16    15               122.10833
   50 Bend                     9    10    12               127.46892
   51 Bend                     9    10    14               124.60298
   52 Bend                    10    12    11               127.46892
   53 Bend                    10    12    16                90.54235
   54 Bend                    10    14    13               124.47722
   55 Bend                    10    14    16                89.45765
   56 Bend                    11    12    16               124.60298
   57 Bend                    12    10    14                90.54235
   58 Bend                    12    16    14                89.45765
   59 Bend                    12    16    15               124.47722
   60 Bend                    13    14    16               118.96607
   61 Bend                    14    16    15               118.96607
   62 Torsion                  1     2     4     3          -0.00000
   63 Torsion                  1     2     4     8         141.75775
   64 Torsion                  1     2     4    12        -129.92655
   65 Torsion                  1     2     6     5         -36.52674
   66 Torsion                  1     2     6    14         146.36287
   67 Torsion                  1     2    10     9         -12.69184
   68 Torsion                  1     2    10    12         125.52147
   69 Torsion                  1     2    10    14        -143.96001
   70 Torsion                  2     4     8     7        -103.73003
   71 Torsion                  2     4     8    16          73.38036
   72 Torsion                  2     4    12    10           0.00000
   73 Torsion                  2     4    12    11         138.21332
   74 Torsion                  2     4    12    16         -90.51852
   75 Torsion                  2     6    14    10         -15.64386
   76 Torsion                  2     6    14    13        -146.36287
   77 Torsion                  2     6    14    16          73.38036
   78 Torsion                  2    10    12     4          -0.00000
   79 Torsion                  2    10    12    11        -136.28573
   80 Torsion                  2    10    12    16          87.42853
   81 Torsion                  2    10    14     6          15.10923
   82 Torsion                  2    10    14    13         143.96001
   83 Torsion                  2    10    14    16         -90.51852
   84 Torsion                  3     4     2     6        -141.75775
   85 Torsion                  3     4     2    10         129.92655
   86 Torsion                  3     4     8     7          36.52674
   87 Torsion                  3     4     8    16        -146.36287
   88 Torsion                  3     4    12    10        -125.52147
   89 Torsion                  3     4    12    11          12.69184
   90 Torsion                  3     4    12    16         143.96001
   91 Torsion                  4     2     6     5         103.73003
   92 Torsion                  4     2     6    14         -73.38036
   93 Torsion                  4     2    10     9        -138.21332
   94 Torsion                  4     2    10    12          -0.00000
   95 Torsion                  4     2    10    14          90.51852
   96 Torsion                  4     8    16    12          15.64386
   97 Torsion                  4     8    16    14         -73.38036
   98 Torsion                  4     8    16    15         146.36287
   99 Torsion                  4    12    10     9         136.28573
  100 Torsion                  4    12    10    14         -87.42853
  101 Torsion                  4    12    16     8         -15.10923
  102 Torsion                  4    12    16    14          90.51852
  103 Torsion                  4    12    16    15        -143.96001
  104 Torsion                  5     6     2    10        -167.24575
  105 Torsion                  5     6    14    10         167.24575
  106 Torsion                  5     6    14    13          36.52674
  107 Torsion                  5     6    14    16        -103.73003
  108 Torsion                  6     2     4     8           0.00000
  109 Torsion                  6     2     4    12          88.31570
  110 Torsion                  6     2    10     9         116.15893
  111 Torsion                  6     2    10    12        -105.62775
  112 Torsion                  6     2    10    14         -15.10923
  113 Torsion                  6    14    10     9        -116.15893
  114 Torsion                  6    14    10    12         105.62775
  115 Torsion                  6    14    16     8          -0.00000
  116 Torsion                  6    14    16    12         -88.31570
  117 Torsion                  6    14    16    15         141.75775
  118 Torsion                  7     8     4    12         167.24575
  119 Torsion                  7     8    16    12        -167.24575
  120 Torsion                  7     8    16    14         103.73003
  121 Torsion                  7     8    16    15         -36.52674
  122 Torsion                  8     4     2    10         -88.31570
  123 Torsion                  8     4    12    10         105.62775
  124 Torsion                  8     4    12    11        -116.15893
  125 Torsion                  8     4    12    16          15.10923
  126 Torsion                  8    16    12    10        -105.62775
  127 Torsion                  8    16    12    11         116.15893
  128 Torsion                  8    16    14    10          88.31570
  129 Torsion                  8    16    14    13        -141.75775
  130 Torsion                  9    10    12    11           0.00000
  131 Torsion                  9    10    12    16        -136.28573
  132 Torsion                  9    10    14    13          12.69184
  133 Torsion                  9    10    14    16         138.21332
  134 Torsion                 10     2     4    12          -0.00000
  135 Torsion                 10     2     6    14          15.64386
  136 Torsion                 10    12    16    14           0.00000
  137 Torsion                 10    12    16    15         125.52147
  138 Torsion                 10    14    16    12           0.00000
  139 Torsion                 10    14    16    15        -129.92655
  140 Torsion                 11    12    10    14         136.28573
  141 Torsion                 11    12    16    14        -138.21332
  142 Torsion                 11    12    16    15         -12.69184
  143 Torsion                 12     4     8    16         -15.64386
  144 Torsion                 12    10    14    13        -125.52147
  145 Torsion                 12    10    14    16          -0.00000
  146 Torsion                 12    16    14    13         129.92655
  147 Torsion                 13    14    16    15           0.00000
  148 Torsion                 14    10    12    16           0.00000


            XYZ format geometry
            -------------------
    16
 geometry
 H                     2.05734129    -1.32981120     0.02496975
 C                     1.09520984    -0.79607173    -0.03872781
 H                     2.05734129     1.32981120     0.02496975
 C                     1.09520984     0.79607173    -0.03872781
 H                     0.00000000    -1.59258557    -2.05035613
 C                     0.00000000    -1.20794408    -1.02589690
 H                     0.00000000     1.59258557    -2.05035613
 C                     0.00000000     1.20794408    -1.02589690
 H                     0.00000000    -1.45028854     1.97989593
 C                     0.00000000    -0.78106969     1.10677262
 H                     0.00000000     1.45028854     1.97989593
 C                     0.00000000     0.78106969     1.10677262
 H                    -2.05734129    -1.32981120     0.02496975
 C                    -1.09520984    -0.79607173    -0.03872781
 H                    -2.05734129     1.32981120     0.02496975
 C                    -1.09520984     0.79607173    -0.03872781

 ==============================================================================
                                internuclear distances
 ------------------------------------------------------------------------------
       center one      |      center two      | atomic units |  angstroms
 ------------------------------------------------------------------------------
    2 C                |   1 H                |     2.08267  |     1.10210
    4 C                |   2 C                |     3.00871  |     1.59214
    4 C                |   3 H                |     2.08267  |     1.10210
    6 C                |   2 C                |     2.89296  |     1.53089
    6 C                |   5 H                |     2.06790  |     1.09429
    8 C                |   4 C                |     2.89296  |     1.53089
    8 C                |   7 H                |     2.06790  |     1.09429
   10 C                |   2 C                |     2.99501  |     1.58489
   10 C                |   9 H                |     2.07887  |     1.10009
   12 C                |   4 C                |     2.99501  |     1.58489
   12 C                |  10 C                |     2.95202  |     1.56214
   12 C                |  11 H                |     2.07887  |     1.10009
   14 C                |   6 C                |     2.89296  |     1.53089
   14 C                |  10 C                |     2.99501  |     1.58489
   14 C                |  13 H                |     2.08267  |     1.10210
   16 C                |   8 C                |     2.89296  |     1.53089
   16 C                |  12 C                |     2.99501  |     1.58489
   16 C                |  14 C                |     3.00871  |     1.59214
   16 C                |  15 H                |     2.08267  |     1.10210
 ------------------------------------------------------------------------------
                         number of included internuclear distances:         19
 ==============================================================================



 ==============================================================================
                                 internuclear angles
 ------------------------------------------------------------------------------
        center 1       |       center 2       |       center 3       |  degrees
 ------------------------------------------------------------------------------
    1 H                |   2 C                |   4 C                |   118.97
    1 H                |   2 C                |   6 C                |   122.11
    1 H                |   2 C                |  10 C                |   124.48
    4 C                |   2 C                |   6 C                |   105.61
    4 C                |   2 C                |  10 C                |    89.46
    6 C                |   2 C                |  10 C                |    88.52
    2 C                |   4 C                |   3 H                |   118.97
    2 C                |   4 C                |   8 C                |   105.61
    2 C                |   4 C                |  12 C                |    89.46
    3 H                |   4 C                |   8 C                |   122.11
    3 H                |   4 C                |  12 C                |   124.48
    8 C                |   4 C                |  12 C                |    88.52
    2 C                |   6 C                |   5 H                |   134.29
    2 C                |   6 C                |  14 C                |    91.35
    5 H                |   6 C                |  14 C                |   134.29
    4 C                |   8 C                |   7 H                |   134.29
    4 C                |   8 C                |  16 C                |    91.35
    7 H                |   8 C                |  16 C                |   134.29
    2 C                |  10 C                |   9 H                |   124.60
    2 C                |  10 C                |  12 C                |    90.54
    2 C                |  10 C                |  14 C                |    87.42
    9 H                |  10 C                |  12 C                |   127.47
    9 H                |  10 C                |  14 C                |   124.60
   12 C                |  10 C                |  14 C                |    90.54
    4 C                |  12 C                |  10 C                |    90.54
    4 C                |  12 C                |  11 H                |   124.60
    4 C                |  12 C                |  16 C                |    87.42
   10 C                |  12 C                |  11 H                |   127.47
   10 C                |  12 C                |  16 C                |    90.54
   11 H                |  12 C                |  16 C                |   124.60
    6 C                |  14 C                |  10 C                |    88.52
    6 C                |  14 C                |  13 H                |   122.11
    6 C                |  14 C                |  16 C                |   105.61
   10 C                |  14 C                |  13 H                |   124.48
   10 C                |  14 C                |  16 C                |    89.46
   13 H                |  14 C                |  16 C                |   118.97
    8 C                |  16 C                |  12 C                |    88.52
    8 C                |  16 C                |  14 C                |   105.61
    8 C                |  16 C                |  15 H                |   122.11
   12 C                |  16 C                |  14 C                |    89.46
   12 C                |  16 C                |  15 H                |   124.48
   14 C                |  16 C                |  15 H                |   118.97
 ------------------------------------------------------------------------------
                            number of included internuclear angles:         42
 ==============================================================================



  library name resolved from: environment
  library file name is: </home/vladimir/bin/nwchem-6.6/src/basis/libraries/>
  
                      Basis "ao basis" -> "" (spherical)
                      -----
  H (Hydrogen)
  ------------
            Exponent  Coefficients 
       -------------- ---------------------------------------------------------
  1 S  3.38700000E+01  0.006068
  1 S  5.09500000E+00  0.045308
  1 S  1.15900000E+00  0.202822

  2 S  3.25800000E-01  1.000000

  3 S  1.02700000E-01  1.000000

  4 P  1.40700000E+00  1.000000

  5 P  3.88000000E-01  1.000000

  6 D  1.05700000E+00  1.000000

  C (Carbon)
  ----------
            Exponent  Coefficients 
       -------------- ---------------------------------------------------------
  1 S  8.23600000E+03  0.000531
  1 S  1.23500000E+03  0.004108
  1 S  2.80800000E+02  0.021087
  1 S  7.92700000E+01  0.081853
  1 S  2.55900000E+01  0.234817
  1 S  8.99700000E+00  0.434401
  1 S  3.31900000E+00  0.346129
  1 S  3.64300000E-01 -0.008983

  2 S  8.23600000E+03 -0.000113
  2 S  1.23500000E+03 -0.000878
  2 S  2.80800000E+02 -0.004540
  2 S  7.92700000E+01 -0.018133
  2 S  2.55900000E+01 -0.055760
  2 S  8.99700000E+00 -0.126895
  2 S  3.31900000E+00 -0.170352
  2 S  3.64300000E-01  0.598684

  3 S  9.05900000E-01  1.000000

  4 S  1.28500000E-01  1.000000

  5 P  1.87100000E+01  0.014031
  5 P  4.13300000E+00  0.086866
  5 P  1.20000000E+00  0.290216

  6 P  3.82700000E-01  1.000000

  7 P  1.20900000E-01  1.000000

  8 D  1.09700000E+00  1.000000

  9 D  3.18000000E-01  1.000000

 10 F  7.61000000E-01  1.000000



 Summary of "ao basis" -> "" (spherical)
 ------------------------------------------------------------------------------
       Tag                 Description            Shells   Functions and Types
 ---------------- ------------------------------  ------  ---------------------
 H                          cc-pVTZ                  6       14   3s2p1d
 C                          cc-pVTZ                 10       30   4s3p2d1f


Entering MRCC input module

  Reference   1 :22222222222222222222222222220                     
  Reference   2 :22222222222222222222222222202                     
 roottooverlap                    0
 usesamefock_it F
 ignorecomplex F
 savet F
 se4t F
 no_aposteriori F
 Using fermivacuum by default
 Using rootfromoverlap  F
 standard version of CCSD is used
 All integrlas stored in memory
 BYTES BYTES                    8
                                 NWChem SCF Module
                                 -----------------


                      cubane MK-CCSD(2,2)/cc-pVTZ calculation



  ao basis        = "ao basis"
  functions       =   352
  atoms           =    16
  closed shells   =    28
  open shells     =     0
  charge          =   0.00
  wavefunction    = RHF 
  input vectors   = atomic
  output vectors  = ./cubane.movecs
  use symmetry    = T
  symmetry adapt  = T


 Summary of "ao basis" -> "ao basis" (spherical)
 ------------------------------------------------------------------------------
       Tag                 Description            Shells   Functions and Types
 ---------------- ------------------------------  ------  ---------------------
 H                          cc-pVTZ                  6       14   3s2p1d
 C                          cc-pVTZ                 10       30   4s3p2d1f


      Symmetry analysis of basis
      --------------------------

        a1        104
        a2         72
        b1         72
        b2        104


 Forming initial guess at       0.3s


      Superposition of Atomic Density Guess
      -------------------------------------

 Sum of atomic energies:        -305.36244765

      Non-variational initial energy
      ------------------------------

 Total energy =    -311.197144
 1-e energy   =   -1118.400128
 2-e energy   =     449.602017
 HOMO         =      -0.138239
 LUMO         =      -0.123548


      Symmetry analysis of molecular orbitals - initial
      -------------------------------------------------

  Numbering of irreducible representations: 

     1 a1          2 a2          3 b1          4 b2      

  Orbital symmetries:

     1 a1          2 b1          3 b2          4 a1          5 a2      
     6 b2          7 a1          8 b2          9 a1         10 b2      
    11 b1         12 a1         13 b2         14 a2         15 a1      
    16 a1         17 b2         18 a1         19 b2         20 b1      
    21 a1         22 b1         23 b1         24 a2         25 a1      
    26 b2         27 a2         28 a1         29 b2         30 a1      
    31 b1         32 a1         33 b2         34 a1         35 a2      
    36 b2         37 b1         38 a1      


 Starting SCF solution at       3.4s



 ----------------------------------------------
         Quadratically convergent ROHF

 Convergence threshold     :          1.000E-04
 Maximum no. of iterations :           30
 Final Fock-matrix accuracy:          1.000E-07
 ----------------------------------------------


              iter       energy          gnorm     gmax       time
             ----- ------------------- --------- --------- --------
                 1     -307.2523053039  9.51D-01  1.97D-01     22.5
                 2     -307.3385008355  2.51D-01  4.34D-02     58.5
                 3     -307.3428942464  1.37D-02  2.43D-03    110.3
                 4     -307.3429262850  1.63D-04  3.08D-05    216.5
                 5     -307.3429262871  7.22D-06  2.21D-06    288.9


       Final RHF  results 
       ------------------ 

         Total SCF energy =   -307.342926287136
      One-electron energy =  -1124.093368437943
      Two-electron energy =    459.149475992254
 Nuclear repulsion energy =    357.600966158554

        Time for solution =    285.3s



       Symmetry analysis of molecular orbitals - final
       -----------------------------------------------

  Numbering of irreducible representations: 

     1 a1          2 a2          3 b1          4 b2      

  Orbital symmetries:

     1 a1          2 b2          3 b1          4 a1          5 a2      
     6 b2          7 a1          8 b2          9 a1         10 b2      
    11 b1         12 a1         13 b2         14 a2         15 a1      
    16 a1         17 b2         18 a1         19 b2         20 b1      
    21 b1         22 a1         23 a2         24 b1         25 b2      
    26 a1         27 a2         28 a1         29 b2         30 a1      
    31 a1         32 b1         33 b2         34 a1         35 a2      
    36 b2         37 b2         38 a1      

             Final eigenvalues
             -----------------

              1      
    1  -11.2555
    2  -11.2554
    3  -11.2389
    4  -11.2389
    5  -11.2385
    6  -11.2385
    7  -11.2302
    8  -11.2297
    9   -1.2189
   10   -1.0230
   11   -0.9674
   12   -0.9341
   13   -0.7871
   14   -0.7845
   15   -0.7569
   16   -0.7010
   17   -0.6521
   18   -0.6088
   19   -0.6066
   20   -0.5757
   21   -0.5387
   22   -0.5301
   23   -0.4449
   24   -0.4324
   25   -0.4130
   26   -0.4055
   27   -0.3823
   28   -0.2090
   29    0.0447
   30    0.1461
   31    0.1619
   32    0.1637
   33    0.1821
   34    0.1937
   35    0.1985
   36    0.2010
   37    0.2212
   38    0.2301

                       ROHF Final Molecular Orbital Analysis
                       -------------------------------------

 Vector    9  Occ=2.000000D+00  E=-1.218864D+00  Symmetry=a1
              MO Center=  3.1D-16, -5.7D-16,  1.5D-01, r^2= 1.8D+00
   Bfn.  Coefficient  Atom+Function         Bfn.  Coefficient  Atom+Function  
  ----- ------------  ---------------      ----- ------------  ---------------
   192      0.183847  10 C  s               236      0.183847  12 C  s         
    16      0.170636   2 C  s                60      0.170636   4 C  s         
   280      0.170636  14 C  s               324      0.170636  16 C  s         

 Vector   10  Occ=2.000000D+00  E=-1.023029D+00  Symmetry=b2
              MO Center= -1.0D-15,  6.9D-15, -1.4D-01, r^2= 2.6D+00
   Bfn.  Coefficient  Atom+Function         Bfn.  Coefficient  Atom+Function  
  ----- ------------  ---------------      ----- ------------  ---------------
   104      0.213301   6 C  s               148     -0.213301   8 C  s         
    16      0.162342   2 C  s                60     -0.162342   4 C  s         
   280      0.162342  14 C  s               324     -0.162342  16 C  s         

 Vector   11  Occ=2.000000D+00  E=-9.673759D-01  Symmetry=b1
              MO Center=  2.3D-15,  6.4D-14,  6.8D-03, r^2= 2.8D+00
   Bfn.  Coefficient  Atom+Function         Bfn.  Coefficient  Atom+Function  
  ----- ------------  ---------------      ----- ------------  ---------------
    16      0.240874   2 C  s                60      0.240874   4 C  s         
   280     -0.240874  14 C  s               324     -0.240874  16 C  s         

 Vector   12  Occ=2.000000D+00  E=-9.340745D-01  Symmetry=a1
              MO Center=  5.6D-16, -1.8D-14,  9.2D-02, r^2= 3.0D+00
   Bfn.  Coefficient  Atom+Function         Bfn.  Coefficient  Atom+Function  
  ----- ------------  ---------------      ----- ------------  ---------------
   192     -0.238453  10 C  s               236     -0.238453  12 C  s         
   104      0.222203   6 C  s               148      0.222203   8 C  s         

 Vector   13  Occ=2.000000D+00  E=-7.870861D-01  Symmetry=b2
              MO Center= -2.8D-17, -1.6D-16, -3.1D-03, r^2= 4.3D+00
   Bfn.  Coefficient  Atom+Function         Bfn.  Coefficient  Atom+Function  
  ----- ------------  ---------------      ----- ------------  ---------------
   104      0.224886   6 C  s               148     -0.224886   8 C  s         
   192     -0.221340  10 C  s               236      0.221340  12 C  s         
   106      0.159057   6 C  s               150     -0.159057   8 C  s         

 Vector   14  Occ=2.000000D+00  E=-7.844562D-01  Symmetry=a2
              MO Center=  2.2D-14,  6.0D-14, -7.9D-02, r^2= 3.9D+00
   Bfn.  Coefficient  Atom+Function         Bfn.  Coefficient  Atom+Function  
  ----- ------------  ---------------      ----- ------------  ---------------
    16      0.215314   2 C  s                60     -0.215314   4 C  s         
   280     -0.215314  14 C  s               324      0.215314  16 C  s         

 Vector   15  Occ=2.000000D+00  E=-7.568673D-01  Symmetry=a1
              MO Center=  7.3D-15, -1.9D-14, -1.9D-01, r^2= 4.3D+00
   Bfn.  Coefficient  Atom+Function         Bfn.  Coefficient  Atom+Function  
  ----- ------------  ---------------      ----- ------------  ---------------
   104      0.178582   6 C  s               148      0.178582   8 C  s         

 Vector   16  Occ=2.000000D+00  E=-7.009714D-01  Symmetry=a1
              MO Center= -1.6D-15, -1.4D-15,  2.0D-01, r^2= 4.4D+00
   Bfn.  Coefficient  Atom+Function         Bfn.  Coefficient  Atom+Function  
  ----- ------------  ---------------      ----- ------------  ---------------
    22      0.099921   2 C  px               66      0.099921   4 C  px        
   286     -0.099921  14 C  px              330     -0.099921  16 C  px        
   178      0.099266   9 H  s               222      0.099266  11 H  s         
   200      0.095715  10 C  pz              244      0.095715  12 C  pz        
     2      0.090048   1 H  s                46      0.090048   3 H  s         

 Vector   17  Occ=2.000000D+00  E=-6.520998D-01  Symmetry=b2
              MO Center= -1.0D-14, -1.6D-14,  2.1D-02, r^2= 5.2D+00
   Bfn.  Coefficient  Atom+Function         Bfn.  Coefficient  Atom+Function  
  ----- ------------  ---------------      ----- ------------  ---------------
   192      0.136537  10 C  s               236     -0.136537  12 C  s         

 Vector   18  Occ=2.000000D+00  E=-6.087718D-01  Symmetry=a1
              MO Center=  1.7D-15,  1.4D-14, -1.4D-01, r^2= 3.7D+00
   Bfn.  Coefficient  Atom+Function         Bfn.  Coefficient  Atom+Function  
  ----- ------------  ---------------      ----- ------------  ---------------
   199     -0.155450  10 C  py              243      0.155450  12 C  py        
   112      0.151842   6 C  pz              156      0.151842   8 C  pz        

 Vector   19  Occ=2.000000D+00  E=-6.066323D-01  Symmetry=b2
              MO Center= -4.2D-14,  2.2D-14, -1.1D-01, r^2= 4.5D+00
   Bfn.  Coefficient  Atom+Function         Bfn.  Coefficient  Atom+Function  
  ----- ------------  ---------------      ----- ------------  ---------------
    22      0.126252   2 C  px               66     -0.126252   4 C  px        
   286     -0.126252  14 C  px              330      0.126252  16 C  px        
     2      0.116561   1 H  s                46     -0.116561   3 H  s         
   266      0.116561  13 H  s               310     -0.116561  15 H  s         

 Vector   20  Occ=2.000000D+00  E=-5.757121D-01  Symmetry=b1
              MO Center=  7.0D-15,  5.8D-14,  1.2D-01, r^2= 3.2D+00
   Bfn.  Coefficient  Atom+Function         Bfn.  Coefficient  Atom+Function  
  ----- ------------  ---------------      ----- ------------  ---------------
   198      0.143640  10 C  px              242      0.143640  12 C  px        

 Vector   21  Occ=2.000000D+00  E=-5.387044D-01  Symmetry=b1
              MO Center=  3.4D-15, -1.4D-14, -2.1D-01, r^2= 3.6D+00
   Bfn.  Coefficient  Atom+Function         Bfn.  Coefficient  Atom+Function  
  ----- ------------  ---------------      ----- ------------  ---------------
   110      0.143935   6 C  px              154      0.143935   8 C  px        

 Vector   22  Occ=2.000000D+00  E=-5.300677D-01  Symmetry=a1
              MO Center= -7.2D-15, -1.8D-15,  2.4D-01, r^2= 3.5D+00
   Bfn.  Coefficient  Atom+Function         Bfn.  Coefficient  Atom+Function  
  ----- ------------  ---------------      ----- ------------  ---------------
   200      0.153444  10 C  pz              244      0.153444  12 C  pz        

 Vector   23  Occ=2.000000D+00  E=-4.448700D-01  Symmetry=a2
              MO Center=  2.6D-15, -7.1D-14, -4.1D-01, r^2= 3.4D+00
   Bfn.  Coefficient  Atom+Function         Bfn.  Coefficient  Atom+Function  
  ----- ------------  ---------------      ----- ------------  ---------------
   110      0.209336   6 C  px              154     -0.209336   8 C  px        
   107      0.158135   6 C  px              151     -0.158135   8 C  px        

 Vector   24  Occ=2.000000D+00  E=-4.324106D-01  Symmetry=b1
              MO Center=  2.9D-15,  3.4D-14,  4.3D-02, r^2= 2.8D+00
   Bfn.  Coefficient  Atom+Function         Bfn.  Coefficient  Atom+Function  
  ----- ------------  ---------------      ----- ------------  ---------------
    23      0.173125   2 C  py               67     -0.173125   4 C  py        
   287     -0.173125  14 C  py              331      0.173125  16 C  py        

 Vector   25  Occ=2.000000D+00  E=-4.129715D-01  Symmetry=b2
              MO Center= -8.3D-14, -2.8D-13,  2.3D-01, r^2= 3.6D+00
   Bfn.  Coefficient  Atom+Function         Bfn.  Coefficient  Atom+Function  
  ----- ------------  ---------------      ----- ------------  ---------------
   200     -0.175942  10 C  pz              244      0.175942  12 C  pz        
   194      0.161048  10 C  s               238     -0.161048  12 C  s         
   203     -0.150052  10 C  pz              247      0.150052  12 C  pz        

 Vector   26  Occ=2.000000D+00  E=-4.054742D-01  Symmetry=a1
              MO Center= -3.1D-15,  2.5D-13,  5.2D-01, r^2= 3.0D+00
   Bfn.  Coefficient  Atom+Function         Bfn.  Coefficient  Atom+Function  
  ----- ------------  ---------------      ----- ------------  ---------------
   199      0.231012  10 C  py              243     -0.231012  12 C  py        
   196      0.169369  10 C  py              240     -0.169369  12 C  py        
   202      0.157790  10 C  py              246     -0.157790  12 C  py        

 Vector   27  Occ=2.000000D+00  E=-3.822742D-01  Symmetry=a2
              MO Center= -1.3D-14, -3.8D-14,  4.7D-01, r^2= 3.0D+00
   Bfn.  Coefficient  Atom+Function         Bfn.  Coefficient  Atom+Function  
  ----- ------------  ---------------      ----- ------------  ---------------
   198      0.214209  10 C  px              242     -0.214209  12 C  px        
   195      0.154733  10 C  px              239     -0.154733  12 C  px        

 Vector   28  Occ=2.000000D+00  E=-2.089947D-01  Symmetry=a1
              MO Center= -1.0D-14,  1.0D-13, -8.6D-01, r^2= 3.3D+00
   Bfn.  Coefficient  Atom+Function         Bfn.  Coefficient  Atom+Function  
  ----- ------------  ---------------      ----- ------------  ---------------
   114      0.375543   6 C  py              158     -0.375543   8 C  py        
   111      0.228696   6 C  py              155     -0.228696   8 C  py        
    18     -0.184047   2 C  s                62     -0.184047   4 C  s         
   282     -0.184047  14 C  s               326     -0.184047  16 C  s         
   108      0.166527   6 C  py              152     -0.166527   8 C  py        

 Vector   29  Occ=0.000000D+00  E= 4.465764D-02  Symmetry=b2
              MO Center=  2.9D-15, -8.9D-14, -7.8D-01, r^2= 4.0D+00
   Bfn.  Coefficient  Atom+Function         Bfn.  Coefficient  Atom+Function  
  ----- ------------  ---------------      ----- ------------  ---------------
   194      0.846812  10 C  s               238     -0.846812  12 C  s         
   106      0.632046   6 C  s               150     -0.632046   8 C  s         
   114      0.607743   6 C  py              158      0.607743   8 C  py        
   202      0.259432  10 C  py              246      0.259432  12 C  py        
    25      0.255232   2 C  px               69     -0.255232   4 C  px        

 Vector   30  Occ=0.000000D+00  E= 1.461475D-01  Symmetry=a1
              MO Center=  3.3D-13, -5.9D-14,  5.6D-01, r^2= 1.2D+01
   Bfn.  Coefficient  Atom+Function         Bfn.  Coefficient  Atom+Function  
  ----- ------------  ---------------      ----- ------------  ---------------
   179      1.086468   9 H  s               223      1.086468  11 H  s         
    18     -0.975604   2 C  s                62     -0.975604   4 C  s         
   282     -0.975604  14 C  s               326     -0.975604  16 C  s         
     3      0.945894   1 H  s                47      0.945894   3 H  s         
   267      0.945894  13 H  s               311      0.945894  15 H  s         

 Vector   31  Occ=0.000000D+00  E= 1.618533D-01  Symmetry=a1
              MO Center=  1.9D-14,  6.4D-15, -8.4D-01, r^2= 1.0D+01
   Bfn.  Coefficient  Atom+Function         Bfn.  Coefficient  Atom+Function  
  ----- ------------  ---------------      ----- ------------  ---------------
   194      1.749015  10 C  s               238      1.749015  12 C  s         
    91      1.472379   5 H  s               135      1.472379   7 H  s         
   106     -1.209879   6 C  s               150     -1.209879   8 C  s         
   179     -0.820797   9 H  s               223     -0.820797  11 H  s         
   115      0.760170   6 C  pz              159      0.760170   8 C  pz        

 Vector   32  Occ=0.000000D+00  E= 1.636586D-01  Symmetry=b1
              MO Center= -3.4D-13,  3.8D-15,  9.2D-02, r^2= 1.1D+01
   Bfn.  Coefficient  Atom+Function         Bfn.  Coefficient  Atom+Function  
  ----- ------------  ---------------      ----- ------------  ---------------
    18      1.527809   2 C  s                62      1.527809   4 C  s         
   282     -1.527809  14 C  s               326     -1.527809  16 C  s         
     3     -1.293561   1 H  s                47     -1.293561   3 H  s         
   267      1.293561  13 H  s               311      1.293561  15 H  s         
    26     -0.505915   2 C  py               70      0.505915   4 C  py        

 Vector   33  Occ=0.000000D+00  E= 1.820904D-01  Symmetry=b2
              MO Center=  4.2D-15, -7.9D-15,  1.0D+00, r^2= 1.2D+01
   Bfn.  Coefficient  Atom+Function         Bfn.  Coefficient  Atom+Function  
  ----- ------------  ---------------      ----- ------------  ---------------
   179      1.776203   9 H  s               223     -1.776203  11 H  s         
   203     -1.199449  10 C  pz              247      1.199449  12 C  pz        
     3      0.994072   1 H  s                47     -0.994072   3 H  s         
   267      0.994072  13 H  s               311     -0.994072  15 H  s         
    18     -0.830967   2 C  s                62      0.830967   4 C  s         

 Vector   34  Occ=0.000000D+00  E= 1.936941D-01  Symmetry=a1
              MO Center= -3.3D-16, -1.2D-15,  1.8D-01, r^2= 1.4D+01
   Bfn.  Coefficient  Atom+Function         Bfn.  Coefficient  Atom+Function  
  ----- ------------  ---------------      ----- ------------  ---------------
   179      1.501665   9 H  s               223      1.501665  11 H  s         
    91      1.352076   5 H  s               135      1.352076   7 H  s         
     3     -1.226429   1 H  s                47     -1.226429   3 H  s         
   267     -1.226429  13 H  s               311     -1.226429  15 H  s         
   115      1.132898   6 C  pz              159      1.132898   8 C  pz        

 Vector   35  Occ=0.000000D+00  E= 1.984935D-01  Symmetry=a2
              MO Center=  2.2D-16, -2.1D-15,  6.6D-02, r^2= 1.4D+01
   Bfn.  Coefficient  Atom+Function         Bfn.  Coefficient  Atom+Function  
  ----- ------------  ---------------      ----- ------------  ---------------
     3      1.944173   1 H  s                47     -1.944173   3 H  s         
   267     -1.944173  13 H  s               311      1.944173  15 H  s         
    25     -1.572471   2 C  px               69      1.572471   4 C  px        
   289     -1.572471  14 C  px              333      1.572471  16 C  px        
    18     -1.550392   2 C  s                62      1.550392   4 C  s         

 Vector   36  Occ=0.000000D+00  E= 2.009766D-01  Symmetry=b2
              MO Center=  1.6D-15,  4.7D-15, -1.2D+00, r^2= 1.3D+01
   Bfn.  Coefficient  Atom+Function         Bfn.  Coefficient  Atom+Function  
  ----- ------------  ---------------      ----- ------------  ---------------
   106      2.260520   6 C  s               150     -2.260520   8 C  s         
    91     -1.976406   5 H  s               135      1.976406   7 H  s         
   179      1.594341   9 H  s               223     -1.594341  11 H  s         
   203     -1.551916  10 C  pz              247      1.551916  12 C  pz        
   115     -1.102310   6 C  pz              159      1.102310   8 C  pz        

 Vector   37  Occ=0.000000D+00  E= 2.212200D-01  Symmetry=b2
              MO Center= -2.1D-14, -6.5D-15, -2.1D-02, r^2= 1.5D+01
   Bfn.  Coefficient  Atom+Function         Bfn.  Coefficient  Atom+Function  
  ----- ------------  ---------------      ----- ------------  ---------------
   194      4.337312  10 C  s               238     -4.337312  12 C  s         
    18     -3.718976   2 C  s                62      3.718976   4 C  s         
   282     -3.718976  14 C  s               326      3.718976  16 C  s         
    25      2.938303   2 C  px               69     -2.938303   4 C  px        
   289     -2.938303  14 C  px              333      2.938303  16 C  px        

 Vector   38  Occ=0.000000D+00  E= 2.301163D-01  Symmetry=a1
              MO Center= -1.0D-15,  3.4D-15,  2.6D-01, r^2= 8.8D+00
   Bfn.  Coefficient  Atom+Function         Bfn.  Coefficient  Atom+Function  
  ----- ------------  ---------------      ----- ------------  ---------------
   203      1.532446  10 C  pz              247      1.532446  12 C  pz        
   179     -1.340872   9 H  s               223     -1.340872  11 H  s         
   115      1.328550   6 C  pz              159      1.328550   8 C  pz        
    91      1.257707   5 H  s               135      1.257707   7 H  s         
   194     -1.078193  10 C  s               238     -1.078193  12 C  s         

 Vector   39  Occ=0.000000D+00  E= 2.354021D-01  Symmetry=b1
              MO Center=  8.4D-14, -7.6D-15,  2.6D-01, r^2= 8.0D+00
   Bfn.  Coefficient  Atom+Function         Bfn.  Coefficient  Atom+Function  
  ----- ------------  ---------------      ----- ------------  ---------------
    25      1.358641   2 C  px               69      1.358641   4 C  px        
   289      1.358641  14 C  px              333      1.358641  16 C  px        
     3     -1.176400   1 H  s                47     -1.176400   3 H  s         
   267      1.176400  13 H  s               311      1.176400  15 H  s         
    18     -1.128767   2 C  s                62     -1.128767   4 C  s         

 Vector   40  Occ=0.000000D+00  E= 3.000478D-01  Symmetry=b2
              MO Center= -1.4D-15,  1.7D-14,  7.9D-01, r^2= 6.1D+00
   Bfn.  Coefficient  Atom+Function         Bfn.  Coefficient  Atom+Function  
  ----- ------------  ---------------      ----- ------------  ---------------
   194      2.807842  10 C  s               238     -2.807842  12 C  s         
   202      2.547565  10 C  py              246      2.547565  12 C  py        
    18      1.206551   2 C  s                62     -1.206551   4 C  s         
   282      1.206551  14 C  s               326     -1.206551  16 C  s         
   179      1.012948   9 H  s               223     -1.012948  11 H  s         

 Vector   41  Occ=0.000000D+00  E= 3.439195D-01  Symmetry=a1
              MO Center= -8.7D-14, -5.8D-13, -1.5D-01, r^2= 7.4D+00
   Bfn.  Coefficient  Atom+Function         Bfn.  Coefficient  Atom+Function  
  ----- ------------  ---------------      ----- ------------  ---------------
   106     -4.604460   6 C  s               150     -4.604460   8 C  s         
    18      4.207989   2 C  s                62      4.207989   4 C  s         
   282      4.207989  14 C  s               326      4.207989  16 C  s         
   194     -3.739251  10 C  s               238     -3.739251  12 C  s         
   115     -2.374416   6 C  pz              159     -2.374416   8 C  pz        

 Vector   42  Occ=0.000000D+00  E= 3.462194D-01  Symmetry=b1
              MO Center= -1.5D-14, -1.9D-15, -3.9D-01, r^2= 6.2D+00
   Bfn.  Coefficient  Atom+Function         Bfn.  Coefficient  Atom+Function  
  ----- ------------  ---------------      ----- ------------  ---------------
   113      1.879273   6 C  px              157      1.879273   8 C  px        
    27      1.199135   2 C  pz               71      1.199135   4 C  pz        
   291     -1.199135  14 C  pz              335     -1.199135  16 C  pz        
   201     -1.008063  10 C  px              245     -1.008063  12 C  px        
    18     -0.881116   2 C  s                62     -0.881116   4 C  s         

 Vector   43  Occ=0.000000D+00  E= 3.462384D-01  Symmetry=a2
              MO Center=  4.2D-14,  2.6D-14, -4.6D-01, r^2= 7.6D+00
   Bfn.  Coefficient  Atom+Function         Bfn.  Coefficient  Atom+Function  
  ----- ------------  ---------------      ----- ------------  ---------------
    18      3.941229   2 C  s                62     -3.941229   4 C  s         
   282     -3.941229  14 C  s               326      3.941229  16 C  s         
    25     -2.449392   2 C  px               69      2.449392   4 C  px        
   289     -2.449392  14 C  px              333      2.449392  16 C  px        
   113     -1.768207   6 C  px              157      1.768207   8 C  px        

 Vector   44  Occ=0.000000D+00  E= 3.515485D-01  Symmetry=a2
              MO Center=  3.6D-15,  3.7D-15, -1.2D-01, r^2= 8.1D+00
   Bfn.  Coefficient  Atom+Function         Bfn.  Coefficient  Atom+Function  
  ----- ------------  ---------------      ----- ------------  ---------------
    18      4.643071   2 C  s                62     -4.643071   4 C  s         
   282     -4.643071  14 C  s               326      4.643071  16 C  s         
    26      2.805243   2 C  py               70      2.805243   4 C  py        
   290     -2.805243  14 C  py              334     -2.805243  16 C  py        
    25     -1.481212   2 C  px               69      1.481212   4 C  px        

 Vector   45  Occ=0.000000D+00  E= 3.533515D-01  Symmetry=b2
              MO Center= -2.2D-16,  1.5D-14, -1.8D-01, r^2= 8.5D+00
   Bfn.  Coefficient  Atom+Function         Bfn.  Coefficient  Atom+Function  
  ----- ------------  ---------------      ----- ------------  ---------------
   194      6.643496  10 C  s               238     -6.643496  12 C  s         
   106     -3.567975   6 C  s               150      3.567975   8 C  s         
   203     -3.007526  10 C  pz              247      3.007526  12 C  pz        
    27     -2.037954   2 C  pz               71      2.037954   4 C  pz        
   291     -2.037954  14 C  pz              335      2.037954  16 C  pz        

 Vector   46  Occ=0.000000D+00  E= 3.735488D-01  Symmetry=a1
              MO Center= -2.2D-15,  5.0D-14, -2.5D-03, r^2= 6.9D+00
   Bfn.  Coefficient  Atom+Function         Bfn.  Coefficient  Atom+Function  
  ----- ------------  ---------------      ----- ------------  ---------------
    18      1.044171   2 C  s                62      1.044171   4 C  s         
   282      1.044171  14 C  s               326      1.044171  16 C  s         
   115     -0.993780   6 C  pz              159     -0.993780   8 C  pz        
    90     -0.773635   5 H  s               134     -0.773635   7 H  s         
   106     -0.640206   6 C  s               150     -0.640206   8 C  s         

 Vector   47  Occ=0.000000D+00  E= 3.820253D-01  Symmetry=b1
              MO Center= -4.6D-15,  3.4D-15,  8.4D-02, r^2= 6.7D+00
   Bfn.  Coefficient  Atom+Function         Bfn.  Coefficient  Atom+Function  
  ----- ------------  ---------------      ----- ------------  ---------------
    27      0.620557   2 C  pz               71      0.620557   4 C  pz        
   291     -0.620557  14 C  pz              335     -0.620557  16 C  pz        
   198     -0.335516  10 C  px              242     -0.335516  12 C  px        
   110      0.311803   6 C  px              154      0.311803   8 C  px        
    26      0.260169   2 C  py               70     -0.260169   4 C  py        

 Vector   48  Occ=0.000000D+00  E= 4.063705D-01  Symmetry=a1
              MO Center=  4.2D-15, -3.2D-15,  9.2D-01, r^2= 6.8D+00
   Bfn.  Coefficient  Atom+Function         Bfn.  Coefficient  Atom+Function  
  ----- ------------  ---------------      ----- ------------  ---------------
    18      2.007137   2 C  s                62      2.007137   4 C  s         
   282      2.007137  14 C  s               326      2.007137  16 C  s         
   203      1.535892  10 C  pz              247      1.535892  12 C  pz        
   106     -1.510276   6 C  s               150     -1.510276   8 C  s         
   115     -1.371464   6 C  pz              159     -1.371464   8 C  pz        

 Vector   49  Occ=0.000000D+00  E= 4.242273D-01  Symmetry=b1
              MO Center= -2.2D-14,  1.3D-15,  1.4D-01, r^2= 7.8D+00
   Bfn.  Coefficient  Atom+Function         Bfn.  Coefficient  Atom+Function  
  ----- ------------  ---------------      ----- ------------  ---------------
    26      0.749072   2 C  py               70     -0.749072   4 C  py        
   290     -0.749072  14 C  py              334      0.749072  16 C  py        
   201     -0.522479  10 C  px              245     -0.522479  12 C  px        
    25      0.430789   2 C  px               69      0.430789   4 C  px        
   289      0.430789  14 C  px              333      0.430789  16 C  px        

 Vector   50  Occ=0.000000D+00  E= 4.253650D-01  Symmetry=a2
              MO Center=  3.3D-15, -6.5D-15,  6.6D-01, r^2= 7.5D+00
   Bfn.  Coefficient  Atom+Function         Bfn.  Coefficient  Atom+Function  
  ----- ------------  ---------------      ----- ------------  ---------------
   201      2.245951  10 C  px              245     -2.245951  12 C  px        
   113     -1.284660   6 C  px              157      1.284660   8 C  px        
    18     -0.728933   2 C  s                62      0.728933   4 C  s         
   282      0.728933  14 C  s               326     -0.728933  16 C  s         
    27     -0.660536   2 C  pz               71      0.660536   4 C  pz        

 Vector   51  Occ=0.000000D+00  E= 4.394421D-01  Symmetry=b2
              MO Center=  7.4D-15, -6.7D-14, -4.2D-01, r^2= 7.6D+00
   Bfn.  Coefficient  Atom+Function         Bfn.  Coefficient  Atom+Function  
  ----- ------------  ---------------      ----- ------------  ---------------
   194      5.132095  10 C  s               238     -5.132095  12 C  s         
   106      3.986595   6 C  s               150     -3.986595   8 C  s         
    18     -3.473039   2 C  s                62      3.473039   4 C  s         
   282     -3.473039  14 C  s               326      3.473039  16 C  s         
   203     -2.289509  10 C  pz              247      2.289509  12 C  pz        

 Vector   52  Occ=0.000000D+00  E= 4.705166D-01  Symmetry=b2
              MO Center=  8.0D-15, -2.2D-14,  1.5D-01, r^2= 7.5D+00
   Bfn.  Coefficient  Atom+Function         Bfn.  Coefficient  Atom+Function  
  ----- ------------  ---------------      ----- ------------  ---------------
   194      6.643953  10 C  s               238     -6.643953  12 C  s         
   202      4.443378  10 C  py              246      4.443378  12 C  py        
    18     -3.956585   2 C  s                62      3.956585   4 C  s         
   282     -3.956585  14 C  s               326      3.956585  16 C  s         
    26     -3.227542   2 C  py               70     -3.227542   4 C  py        

 Vector   53  Occ=0.000000D+00  E= 4.798791D-01  Symmetry=a1
              MO Center=  2.4D-15, -9.1D-15, -1.7D-02, r^2= 6.3D+00
   Bfn.  Coefficient  Atom+Function         Bfn.  Coefficient  Atom+Function  
  ----- ------------  ---------------      ----- ------------  ---------------
   194      1.825710  10 C  s               238      1.825710  12 C  s         
   203     -1.125861  10 C  pz              247     -1.125861  12 C  pz        
    27     -0.747676   2 C  pz               71     -0.747676   4 C  pz        
   291     -0.747676  14 C  pz              335     -0.747676  16 C  pz        
   202      0.642117  10 C  py              246     -0.642117  12 C  py        

 Vector   54  Occ=0.000000D+00  E= 4.835786D-01  Symmetry=a2
              MO Center= -1.2D-14,  2.7D-15, -1.2D-01, r^2= 7.3D+00
   Bfn.  Coefficient  Atom+Function         Bfn.  Coefficient  Atom+Function  
  ----- ------------  ---------------      ----- ------------  ---------------
    27      2.994007   2 C  pz               71     -2.994007   4 C  pz        
   291     -2.994007  14 C  pz              335      2.994007  16 C  pz        
   113      2.202837   6 C  px              157     -2.202837   8 C  px        
   201     -2.151805  10 C  px              245      2.151805  12 C  px        
    18      1.525858   2 C  s                62     -1.525858   4 C  s         

 Vector   55  Occ=0.000000D+00  E= 4.946456D-01  Symmetry=a1
              MO Center= -3.0D-14, -4.0D-14, -5.9D-01, r^2= 7.5D+00
   Bfn.  Coefficient  Atom+Function         Bfn.  Coefficient  Atom+Function  
  ----- ------------  ---------------      ----- ------------  ---------------
   106      2.842131   6 C  s               150      2.842131   8 C  s         
   115      1.279558   6 C  pz              159      1.279558   8 C  pz        
   203      1.022352  10 C  pz              247      1.022352  12 C  pz        
   194     -0.926350  10 C  s               238     -0.926350  12 C  s         
    26      0.632919   2 C  py               70     -0.632919   4 C  py        

 Vector   56  Occ=0.000000D+00  E= 5.243320D-01  Symmetry=b1
              MO Center= -2.8D-13, -1.8D-14,  3.2D-01, r^2= 6.0D+00
   Bfn.  Coefficient  Atom+Function         Bfn.  Coefficient  Atom+Function  
  ----- ------------  ---------------      ----- ------------  ---------------
    18      2.408308   2 C  s                62      2.408308   4 C  s         
   282     -2.408308  14 C  s               326     -2.408308  16 C  s         
    25     -1.729973   2 C  px               69     -1.729973   4 C  px        
   289     -1.729973  14 C  px              333     -1.729973  16 C  px        
   201     -1.582961  10 C  px              245     -1.582961  12 C  px        


 center of mass
 --------------
 x =   0.00000000 y =   0.00000000 z =   0.00073946

 moments of inertia (a.u.)
 ------------------
         598.753468619020           0.000000000000           0.000000000000
           0.000000000000         520.467351248341           0.000000000000
           0.000000000000           0.000000000000         611.362851002771

  Mulliken analysis of the total density
  --------------------------------------

    Atom       Charge   Shell Charges
 -----------   ------   -------------------------------------------------------
    1 H    1     0.88   0.27  0.48  0.10  0.01  0.02  0.00
    2 C    6     6.02   1.96  0.81  0.15  0.26  0.77  1.55  0.38  0.02  0.10  0.01
    3 H    1     0.88   0.27  0.48  0.10  0.01  0.02  0.00
    4 C    6     6.02   1.96  0.81  0.15  0.26  0.77  1.55  0.38  0.02  0.10  0.01
    5 H    1     0.81   0.26  0.43  0.10  0.01  0.02  0.00
    6 C    6     6.35   1.96  0.84  0.16  0.42  0.74  1.46  0.67  0.02  0.07  0.01
    7 H    1     0.81   0.26  0.43  0.10  0.01  0.02  0.00
    8 C    6     6.35   1.96  0.84  0.16  0.42  0.74  1.46  0.67  0.02  0.07  0.01
    9 H    1     0.87   0.26  0.47  0.10  0.01  0.02  0.00
   10 C    6     6.17   1.96  0.82  0.15  0.35  0.77  1.55  0.45  0.02  0.09  0.01
   11 H    1     0.87   0.26  0.47  0.10  0.01  0.02  0.00
   12 C    6     6.17   1.96  0.82  0.15  0.35  0.77  1.55  0.45  0.02  0.09  0.01
   13 H    1     0.88   0.27  0.48  0.10  0.01  0.02  0.00
   14 C    6     6.02   1.96  0.81  0.15  0.26  0.77  1.55  0.38  0.02  0.10  0.01
   15 H    1     0.88   0.27  0.48  0.10  0.01  0.02  0.00
   16 C    6     6.02   1.96  0.81  0.15  0.26  0.77  1.55  0.38  0.02  0.10  0.01

       Multipole analysis of the density wrt the origin
       ------------------------------------------------

     L   x y z        total         open         nuclear
     -   - - -        -----         ----         -------
     0   0 0 0      0.000000      0.000000     56.000000

     1   1 0 0      0.000000      0.000000      0.000000
     1   0 1 0     -0.000000      0.000000     -0.000000
     1   0 0 1      0.152196      0.000000     -0.000000

     2   2 0 0    -35.145248      0.000000    163.262786
     2   1 1 0      0.000000      0.000000      0.000000
     2   1 0 1     -0.000000      0.000000      0.000000
     2   0 2 0    -35.572608      0.000000    201.382432
     2   0 1 1      0.000000      0.000000      0.000000
     2   0 0 2    -35.746029      0.000000    155.753068

WARNING!!!!!!!! ROHF FOR MRCC CODE. OCC HAS BEEN CHANGED.
Occupation nocc(1)         28 nocc(2)         28 mult          1 nopen          0
                   NWChem Extensible Many-Electron Theory Module
                   ---------------------------------------------

              ======================================================
                   This portion of the program was automatically
                  generated by a Tensor Contraction Engine (TCE).
                  The development of this portion of the program
                 and TCE was supported by US Department of Energy,
                Office of Science, Office of Basic Energy Science.
                      TCE is a product of Battelle and PNNL.
              Please cite: S.Hirata, J.Phys.Chem.A 107, 9887 (2003).
              ======================================================

                      cubane MK-CCSD(2,2)/cc-pVTZ calculation


            General Information
            -------------------
      Number of processors :     1
         Wavefunction type : Restricted open-shell Hartree-Fock
          No. of electrons :    56
           Alpha electrons :    28
            Beta electrons :    28
           No. of orbitals :   704
            Alpha orbitals :   352
             Beta orbitals :   352
        Alpha frozen cores :     8
         Beta frozen cores :     8
     Alpha frozen virtuals :     0
      Beta frozen virtuals :     0
         Spin multiplicity : singlet 
    Number of AO functions :   352
       Number of AO shells :   128
        Use of symmetry is : on 
      Symmetry adaption is : on 
         Schwarz screening : 0.10D-09

          Correlation Information
          -----------------------
          Calculation type : State Specific Multireference Mukherjee's CCSD theory       
   Perturbative correction : none                                                        
            Max iterations :      100
        Residual threshold : 0.10D-06
     T(0) DIIS level shift : 0.00D+00
     L(0) DIIS level shift : 0.00D+00
     T(1) DIIS level shift : 0.00D+00
     L(1) DIIS level shift : 0.00D+00
     T(R) DIIS level shift : 0.00D+00
     T(I) DIIS level shift : 0.00D+00
   CC-T/L Amplitude update :  5-th order DIIS
                I/O scheme : Exclusive Access File Library

MRCC module - reference analysis

Fermi vacuum according to SCF wave function         has been requested.

MRCC module finished


 Global files accessible by all nodes assumed

 Parallel file system coherency ......... OK

            Memory Information
            ------------------
          Available GA space size is     130824192 doubles
          Available MA space size is      65511268 doubles

Maximum block size doubles

nbf,nmo(1):   352   352


Blocks for reference    1

 Block   Spin    Irrep     Size     Offset   Alpha    Active
 -----------------------------------------------------------
   1    alpha     a1     7 doubles       0       1       F
   2    alpha     a2     3 doubles       7       2       F
   3    alpha     b1     4 doubles      10       3       F
   4    alpha     b2     5 doubles      14       4       F
   5    alpha     a1     1 doubles      19       5       T
   6    beta      a1     7 doubles      20       6       F
   7    beta      a2     3 doubles      27       7       F
   8    beta      b1     4 doubles      30       8       F
   9    beta      b2     5 doubles      34       9       F
  10    beta      a1     1 doubles      39      10       T
  11    alpha     b2     1 doubles      40      11       T
  12    alpha     a1    18 doubles      41      12       F
  13    alpha     a1    19 doubles      59      13       F
  14    alpha     a1    18 doubles      78      14       F
  15    alpha     a1    19 doubles      96      15       F
  16    alpha     a1    19 doubles     115      16       F
  17    alpha     a2    17 doubles     134      17       F
  18    alpha     a2    17 doubles     151      18       F
  19    alpha     a2    17 doubles     168      19       F
  20    alpha     a2    17 doubles     185      20       F
  21    alpha     b1    16 doubles     202      21       F
  22    alpha     b1    17 doubles     218      22       F
  23    alpha     b1    17 doubles     235      23       F
  24    alpha     b1    17 doubles     252      24       F
  25    alpha     b2    19 doubles     269      25       F
  26    alpha     b2    19 doubles     288      26       F
  27    alpha     b2    19 doubles     307      27       F
  28    alpha     b2    19 doubles     326      28       F
  29    alpha     b2    19 doubles     345      29       F
  30    beta      b2     1 doubles     364      30       T
  31    beta      a1    18 doubles     365      31       F
  32    beta      a1    19 doubles     383      32       F
  33    beta      a1    18 doubles     402      33       F
  34    beta      a1    19 doubles     420      34       F
  35    beta      a1    19 doubles     439      35       F
  36    beta      a2    17 doubles     458      36       F
  37    beta      a2    17 doubles     475      37       F
  38    beta      a2    17 doubles     492      38       F
  39    beta      a2    17 doubles     509      39       F
  40    beta      b1    16 doubles     526      40       F
  41    beta      b1    17 doubles     542      41       F
  42    beta      b1    17 doubles     559      42       F
  43    beta      b1    17 doubles     576      43       F
  44    beta      b2    19 doubles     593      44       F
  45    beta      b2    19 doubles     612      45       F
  46    beta      b2    19 doubles     631      46       F
  47    beta      b2    19 doubles     650      47       F
  48    beta      b2    19 doubles     669      48       F

Blocks for reference    2

 Block   Spin    Irrep     Size     Offset   Alpha    Active
 -----------------------------------------------------------
   1    alpha     a1     7 doubles       0       1       F
   2    alpha     a2     3 doubles       7       2       F
   3    alpha     b1     4 doubles      10       3       F
   4    alpha     b2     5 doubles      14       4       F
   5    alpha     b2     1 doubles      19       5       T
   6    beta      a1     7 doubles      20       6       F
   7    beta      a2     3 doubles      27       7       F
   8    beta      b1     4 doubles      30       8       F
   9    beta      b2     5 doubles      34       9       F
  10    beta      b2     1 doubles      39      10       T
  11    alpha     a1     1 doubles      40      11       T
  12    alpha     a1    18 doubles      41      12       F
  13    alpha     a1    19 doubles      59      13       F
  14    alpha     a1    18 doubles      78      14       F
  15    alpha     a1    19 doubles      96      15       F
  16    alpha     a1    19 doubles     115      16       F
  17    alpha     a2    17 doubles     134      17       F
  18    alpha     a2    17 doubles     151      18       F
  19    alpha     a2    17 doubles     168      19       F
  20    alpha     a2    17 doubles     185      20       F
  21    alpha     b1    16 doubles     202      21       F
  22    alpha     b1    17 doubles     218      22       F
  23    alpha     b1    17 doubles     235      23       F
  24    alpha     b1    17 doubles     252      24       F
  25    alpha     b2    19 doubles     269      25       F
  26    alpha     b2    19 doubles     288      26       F
  27    alpha     b2    19 doubles     307      27       F
  28    alpha     b2    19 doubles     326      28       F
  29    alpha     b2    19 doubles     345      29       F
  30    beta      a1     1 doubles     364      30       T
  31    beta      a1    18 doubles     365      31       F
  32    beta      a1    19 doubles     383      32       F
  33    beta      a1    18 doubles     402      33       F
  34    beta      a1    19 doubles     420      34       F
  35    beta      a1    19 doubles     439      35       F
  36    beta      a2    17 doubles     458      36       F
  37    beta      a2    17 doubles     475      37       F
  38    beta      a2    17 doubles     492      38       F
  39    beta      a2    17 doubles     509      39       F
  40    beta      b1    16 doubles     526      40       F
  41    beta      b1    17 doubles     542      41       F
  42    beta      b1    17 doubles     559      42       F
  43    beta      b1    17 doubles     576      43       F
  44    beta      b2    19 doubles     593      44       F
  45    beta      b2    19 doubles     612      45       F
  46    beta      b2    19 doubles     631      46       F
  47    beta      b2    19 doubles     650      47       F
  48    beta      b2    19 doubles     669      48       F

MRCC tiling completed in             0.0            0.0
tce_ao1e_fock2e       91.33600       91.35798
F:     1 in bytes =               487744
tce_mo1e        0.08000        0.07864
eone,etwo,enrep,energy  -1124.093368437943    459.149477207803    357.600966158554   -307.342925071587
mrcc_uhf_energy       21.19600       21.10901
tce_ao1e_fock2e       93.28000       93.33233
F:     2 in bytes =               487744
tce_mo1e        0.09200        0.09320
eone,etwo,enrep,energy  -1123.071523264453    458.209057399966    357.600966158554   -307.261499705933
mrcc_uhf_energy       22.07200       22.03989
2-e(intermediate) /opt/scratch/cubane. in bytes=       240460988416
Ref.   1 Half 2-e        9040.22        6577.04
V 2-e /opt/scratch/cubane. in bytes=        43631849664
Ref.   1 2-e transform. completed
2-e(intermediate) /opt/scratch/cubane. in bytes=       240460988416
Ref.   2 Half 2-e        9279.16        6608.35
V 2-e /opt/scratch/cubane. in bytes=        43631849664
Ref.   2 2-e transform. completed

Integral replication completed.
Proceeding the allocation of the memory for intermediates.

T2:     1 in bytes =            142056640
T1:     1 in bytes =                27136
T2:     2 in bytes =            141961216
T1:     2 in bytes =                27200
Done.


Symmetry of references

Ref.   1 sym:a1  
Ref.   2 sym:a1  
MR MkCCSD, version 1.0

Heff
=============================================
    0    1 -664.94389123    0.08397713
    0    2    0.08397713 -664.86246586

Eigenvalues (real and imaginary)
=============================================
 -664.996504218517    0.00000000
 -664.809852876110    0.00000000

Left eigenvectors
=============================================
    1   -0.84742054   -0.53092225
    2    0.53092225   -0.84742054

Right eigenvectors
=============================================
VR    1   -0.84742054   -0.53092225
VR    2    0.53092225   -0.84742054
Target root:    1

MkCC iter. #   1      -664.9965042185173      -307.3955380599638      -664.9965042185173
ydot R:  0.042962607508  1.789047360025
Iter cpu           872.5         1058.1   1

Heff
=============================================
    0    1 -666.04556335    0.06751711
    0    2    0.05934497 -665.55482436

Eigenvalues (real and imaginary)
=============================================
 -666.053596673733    0.00000000
 -665.546791030045    0.00000000

Left eigenvectors
=============================================
    1   -0.99096197   -0.11814873
    2    0.13414314   -0.99299591

Right eigenvectors
=============================================
VR    1   -0.99299591   -0.13414314
VR    2    0.11814873   -0.99096197
Target root:    1

MkCC iter. #   2      -666.0535966737326      -308.4526305151791        -1.0570924552153
ydot R:  0.138623809766  0.457574673801
Iter cpu           870.6         1078.8   2

Heff
=============================================
    0    1 -666.25551862    0.06680125
    0    2    0.06343493 -665.62474577

Eigenvalues (real and imaginary)
=============================================
 -666.262166554858    0.00000000
 -665.618097829558    0.00000000

Left eigenvectors
=============================================
    1   -0.99455338   -0.09902896
    2    0.10422850   -0.99508455

Right eigenvectors
=============================================
VR    1   -0.99508455   -0.10422850
VR    2    0.09902896   -0.99455338
Target root:    1

MkCC iter. #   3      -666.2621665548584      -308.6612003963048        -0.2085698811258
ydot R:  0.034586210410  0.104444361178
Iter cpu           877.4         1076.2   3

Heff
=============================================
    0    1 -666.28320245    0.06643530
    0    2    0.06426958 -665.67796166

Eigenvalues (real and imaginary)
=============================================
 -666.290176743175    0.00000000
 -665.670987368838    0.00000000

Left eigenvectors
=============================================
    1   -0.99416360   -0.10440504
    2    0.10788294   -0.99453486

Right eigenvectors
=============================================
VR    1   -0.99453486   -0.10788294
VR    2    0.10440504   -0.99416360
Target root:    1

MkCC iter. #   4      -666.2901767431753      -308.6892105846217        -0.0280101883169
ydot R:  0.012601697275  0.037917959372
Iter cpu           893.5         1105.9   4

Heff
=============================================
    0    1 -666.28993463    0.06608610
    0    2    0.06541613 -665.72927018

Eigenvalues (real and imaginary)
=============================================
 -666.297542076723    0.00000000
 -665.721662730827    0.00000000

Left eigenvectors
=============================================
    1   -0.99330578   -0.11435894
    2    0.11551461   -0.99343950

Right eigenvectors
=============================================
VR    1   -0.99343950   -0.11551461
VR    2    0.11435894   -0.99330578
Target root:    1

MkCC iter. #   5      -666.2975420767231      -308.6965759181695        -0.0073653335478
ydot R:  0.004719608322  0.020448459072

 X matrix
-------------------------

              1         2         3         4         5
    1  -0.03365   0.14595  -0.16512  -1.29533   2.34816
-------------------------

Iter cpu           884.3         1099.5   5

Heff
=============================================
    0    1 -666.31400246    0.06518006
    0    2    0.06584669 -665.81667938

Eigenvalues (real and imaginary)
=============================================
 -666.322487668464    0.00000000
 -665.808194163518    0.00000000

Left eigenvectors
=============================================
    1   -0.99179914   -0.12909184
    2    0.12780638   -0.99163264

Right eigenvectors
=============================================
VR    1   -0.99163264   -0.12780638
VR    2    0.12909184   -0.99179914
Target root:    1

MkCC iter. #   6      -666.3224876684641      -308.7215215099105        -0.0249455917410
ydot R:  0.010351564268  0.043837757599
Iter cpu           892.2         1100.5   6

Heff
=============================================
    0    1 -666.29254611    0.06485783
    0    2    0.06657850 -665.86402000

Eigenvalues (real and imaginary)
=============================================
 -666.302396408382    0.00000000
 -665.854169702701    0.00000000

Left eigenvectors
=============================================
    1   -0.98923185   -0.15015333
    2    0.14635694   -0.98866272

Right eigenvectors
=============================================
VR    1   -0.98866272   -0.14635694
VR    2    0.15015333   -0.98923185
Target root:    1

MkCC iter. #   7      -666.3023964083816      -308.7014302498280         0.0200912600825
ydot R:  0.004327523224  0.016864653154
Iter cpu           887.2         1090.4   7

Heff
=============================================
    0    1 -666.29519737    0.06446202
    0    2    0.06635012 -665.91257440

Eigenvalues (real and imaginary)
=============================================
 -666.306066860337    0.00000000
 -665.901704905934    0.00000000

Left eigenvectors
=============================================
    1   -0.98684565   -0.16627137
    2    0.16166527   -0.98608003

Right eigenvectors
=============================================
VR    1   -0.98608003   -0.16166527
VR    2    0.16627137   -0.98684565
Target root:    1

MkCC iter. #   8      -666.3060668603371      -308.7051007017835        -0.0036704519555
ydot R:  0.002629375959  0.015695504477
Iter cpu           891.4         1095.0   8

Heff
=============================================
    0    1 -666.29419358    0.06404912
    0    2    0.06643505 -665.95913611

Eigenvalues (real and imaginary)
=============================================
 -666.306445217515    0.00000000
 -665.946884469491    0.00000000

Left eigenvectors
=============================================
    1   -0.98341729   -0.18787871
    2    0.18135721   -0.98219224

Right eigenvectors
=============================================
VR    1   -0.98219224   -0.18135721
VR    2    0.18787871   -0.98341729
Target root:    1

MkCC iter. #   9      -666.3064452175153      -308.7054790589617        -0.0003783571782
ydot R:  0.002957607961  0.016596252282
Iter cpu           879.6         1051.8   9

Heff
=============================================
    0    1 -666.29422633    0.06360952
    0    2    0.06641552 -666.00397501

Eigenvalues (real and imaginary)
=============================================
 -666.308116755811    0.00000000
 -665.990084577689    0.00000000

Left eigenvectors
=============================================
    1   -0.97882163   -0.21334284
    2    0.20471499   -0.97697740

Right eigenvectors
=============================================
VR    1   -0.97697740   -0.20471499
VR    2    0.21334284   -0.97882163
Target root:    1

MkCC iter. #  10      -666.3081167558113      -308.7071505972577        -0.0016715382960
ydot R:  0.003362999701  0.017584375455

 X matrix
-------------------------

              1         2         3         4         5
    1   0.56533   3.83160   0.86241 -17.62655  13.36721
-------------------------

Iter cpu           878.4         1068.0  10

Heff
=============================================
    0    1 -666.30038372    0.06224321
    0    2    0.06631571 -666.07338662

Eigenvalues (real and imaginary)
=============================================
 -666.317306117042    0.00000000
 -666.056464223868    0.00000000

Left eigenvectors
=============================================
    1   -0.96895018   -0.26235219
    2    0.24725604   -0.96497219

Right eigenvectors
=============================================
VR    1   -0.96497219   -0.24725604
[...]
Iter cpu           879.8         1043.8  19

Heff
=============================================
    0    1 -666.29216530    0.06060715
    0    2    0.06633336 -666.23328038

Eigenvalues (real and imaginary)
=============================================
 -666.332630884029    0.00000000
 -666.192814797562    0.00000000

Left eigenvectors
=============================================
    1   -0.85369083   -0.55527781
    2    0.52078015   -0.83166493

Right eigenvectors
=============================================
VR    1   -0.83166493   -0.52078015
VR    2    0.55527781   -0.85369083
Target root:    1

MkCC iter. #  20      -666.3326308840288      -308.7316647254753        -0.0010196655587
ydot R:  0.001246489645  0.002835726999

 X matrix
-------------------------

              1         2         3         4         5
    1  -0.22702   0.42160   2.69208  -8.94473   7.05807
-------------------------

Iter cpu           887.9         1062.9  20

Heff
=============================================
    0    1 -666.29222738    0.06054947
    0    2    0.06629269 -666.23917479

Eigenvalues (real and imaginary)
=============================================
 -666.334386105426    0.00000000
 -666.197016069132    0.00000000

Left eigenvectors
=============================================
    1   -0.84382019   -0.57140560
    2    0.53662603   -0.82066780

Right eigenvectors
=============================================
VR    1   -0.82066780   -0.53662603
VR    2    0.57140560   -0.84382019
Target root:    1

MkCC iter. #  21      -666.3343861054265      -308.7334199468729        -0.0017552213976
ydot R:  0.000436042931  0.001146483132
Iter cpu           879.3         1054.2  21

Heff
=============================================
    0    1 -666.29191496    0.06056975
    0    2    0.06630363 -666.23892631

Eigenvalues (real and imaginary)
=============================================
 -666.334107923766    0.00000000
 -666.196733341493    0.00000000

Left eigenvectors
=============================================
    1   -0.84366295   -0.57158917
    2    0.53687319   -0.82053995

Right eigenvectors
=============================================
VR    1   -0.82053995   -0.53687319
VR    2    0.57158917   -0.84366295
Target root:    1

MkCC iter. #  22      -666.3341079237663      -308.7331417652127         0.0002781816602
ydot R:  0.000228756070  0.000509998462
Iter cpu           881.2         1045.1  22

Heff
=============================================
    0    1 -666.29189417    0.06057576
    0    2    0.06630215 -666.23882073

Eigenvalues (real and imaginary)
=============================================
 -666.334063353268    0.00000000
 -666.196651553601    0.00000000

Left eigenvectors
=============================================
    1   -0.84379462   -0.57133399
    2    0.53666622   -0.82071765

Right eigenvectors
=============================================
VR    1   -0.82071765   -0.53666622
VR    2    0.57133399   -0.84379462
Target root:    1

MkCC iter. #  23      -666.3340633532677      -308.7330971947141         0.0000445704986
ydot R:  0.000164067783  0.000337508026
Iter cpu           882.3         1048.6  23

Heff
=============================================
    0    1 -666.29189390    0.06057710
    0    2    0.06630145 -666.23877302

Eigenvalues (real and imaginary)
=============================================
 -666.334048858324    0.00000000
 -666.196618059351    0.00000000

Left eigenvectors
=============================================
    1   -0.84387397   -0.57119573
    2    0.53654144   -0.82081389

Right eigenvectors
=============================================
VR    1   -0.82081389   -0.53654144
VR    2    0.57119573   -0.84387397
Target root:    1

MkCC iter. #  24      -666.3340488583241      -308.7330826997705         0.0000144949436
ydot R:  0.000123277008  0.000245159723
Iter cpu           881.4         1046.0  24

Heff
=============================================
    0    1 -666.29189546    0.06057656
    0    2    0.06630121 -666.23875330

Eigenvalues (real and imaginary)
=============================================
 -666.334043525163    0.00000000
 -666.196605227936    0.00000000

Left eigenvectors
=============================================
    1   -0.84391280   -0.57113620
    2    0.53648037   -0.82085531

Right eigenvectors
=============================================
VR    1   -0.82085531   -0.53648037
VR    2    0.57113620   -0.84391280
Target root:    1

MkCC iter. #  25      -666.3340435251627      -308.7330773666091         0.0000053331614
ydot R:  0.000094757441  0.000184063221

 X matrix
-------------------------

              1         2         3         4         5
    1  -0.06338   0.65406   1.40118  -8.95142   7.95955
-------------------------

Iter cpu           878.7         1061.5  25

Heff
=============================================
    0    1 -666.29189934    0.06056794
    0    2    0.06630248 -666.23875768

Eigenvalues (real and imaginary)
=============================================
 -666.334043961039    0.00000000
 -666.196613053778    0.00000000

Left eigenvectors
=============================================
    1   -0.84393732   -0.57115950
    2    0.53644179   -0.82083910

Right eigenvectors
=============================================
VR    1   -0.82083910   -0.53644179
VR    2    0.57115950   -0.84393732
Target root:    1

MkCC iter. #  26      -666.3340439610391      -308.7330778024856        -0.0000004358765
ydot R:  0.000023286078  0.000056214706
Iter cpu           882.0         1053.0  26

Heff
=============================================
    0    1 -666.29189861    0.06056710
    0    2    0.06630107 -666.23876471

Eigenvalues (real and imaginary)
=============================================
 -666.334044582111    0.00000000
 -666.196618731115    0.00000000

Left eigenvectors
=============================================
    1   -0.84392436   -0.57117720
    2    0.53646218   -0.82082678

Right eigenvectors
=============================================
VR    1   -0.82082678   -0.53646218
VR    2    0.57117720   -0.84392436
Target root:    1

MkCC iter. #  27      -666.3340445821112      -308.7330784235577        -0.0000006210721
ydot R:  0.000010481809  0.000025024157
Iter cpu           881.7         1046.4  27

Heff
=============================================
    0    1 -666.29189681    0.06056628
    0    2    0.06630122 -666.23876822

Eigenvalues (real and imaginary)
=============================================
 -666.334044088994    0.00000000
 -666.196620946690    0.00000000

Left eigenvectors
=============================================
    1   -0.84391744   -0.57119429
    2    0.53647307   -0.82081489

Right eigenvectors
=============================================
VR    1   -0.82081489   -0.53647307
VR    2    0.57119429   -0.84391744
Target root:    1

MkCC iter. #  28      -666.3340440889938      -308.7330779304402         0.0000004931175
ydot R:  0.000007900970  0.000017076033
Iter cpu           881.6         1045.0  28

Heff
=============================================
    0    1 -666.29189664    0.06056562
    0    2    0.06630118 -666.23877005

Eigenvalues (real and imaginary)
=============================================
 -666.334044193549    0.00000000
 -666.196622496560    0.00000000

Left eigenvectors
=============================================
    1   -0.84391570   -0.57120099
    2    0.53647580   -0.82081023

Right eigenvectors
=============================================
VR    1   -0.82081023   -0.53647580
VR    2    0.57120099   -0.84391570
Target root:    1

MkCC iter. #  29      -666.3340441935486      -308.7330780349951        -0.0000001045548
ydot R:  0.000006148643  0.000012692070
Iter cpu           884.4         1045.7  29

Heff
=============================================
    0    1 -666.29189659    0.06056512
    0    2    0.06630116 -666.23877097

Eigenvalues (real and imaginary)
=============================================
 -666.334044191236    0.00000000
 -666.196623363709    0.00000000

Left eigenvectors
=============================================
    1   -0.84391534   -0.57120462
    2    0.53647638   -0.82080770

Right eigenvectors
=============================================
VR    1   -0.82080770   -0.53647638
VR    2    0.57120462   -0.84391534
Target root:    1

MkCC iter. #  30      -666.3340441912361      -308.7330780326826         0.0000000023125
ydot R:  0.000004848535  0.000009762684

 X matrix
-------------------------

              1         2         3         4         5
    1  -0.02822   0.44405   2.21496 -10.44920   8.81841
-------------------------

Iter cpu           879.4         1070.9  30

Heff
=============================================
    0    1 -666.29189732    0.06056330
    0    2    0.06630105 -666.23877210

Eigenvalues (real and imaginary)
=============================================
 -666.334044120641    0.00000000
 -666.196625304961    0.00000000

Left eigenvectors
=============================================
    1   -0.84391955   -0.57120880
    2    0.53646975   -0.82080479

Right eigenvectors
=============================================
VR    1   -0.82080479   -0.53646975
VR    2    0.57120880   -0.84391955
Target root:    1

MkCC iter. #  31      -666.3340441206412      -308.7330779620877         0.0000000705949
ydot R:  0.000001378929  0.000003580231
Iter cpu           883.6         1053.6  31

Heff
=============================================
    0    1 -666.29189670    0.06056345
    0    2    0.06630110 -666.23877196

Eigenvalues (real and imaginary)
=============================================
 -666.334043738758    0.00000000
 -666.196624919739    0.00000000

Left eigenvectors
=============================================
    1   -0.84391838   -0.57121009
    2    0.53647159   -0.82080389

Right eigenvectors
=============================================
VR    1   -0.82080389   -0.53647159
VR    2    0.57121009   -0.84391838
Target root:    1

MkCC iter. #  32      -666.3340437387577      -308.7330775802042         0.0000003818835
ydot R:  0.000000701892  0.000001642741
Iter cpu           877.5         1049.4  32

Heff
=============================================
    0    1 -666.29189664    0.06056352
    0    2    0.06630111 -666.23877188

Eigenvalues (real and imaginary)
=============================================
 -666.334043709903    0.00000000
 -666.196624805845    0.00000000

Left eigenvectors
=============================================
    1   -0.84391821   -0.57120994
    2    0.53647185   -0.82080400

Right eigenvectors
=============================================
VR    1   -0.82080400   -0.53647185
VR    2    0.57120994   -0.84391821
Target root:    1

MkCC iter. #  33      -666.3340437099029      -308.7330775513493         0.0000000288549
ydot R:  0.000000481539  0.000001060257
Iter cpu           883.1         1044.3  33

Heff
=============================================
    0    1 -666.29189663    0.06056356
    0    2    0.06630112 -666.23877183

Eigenvalues (real and imaginary)
=============================================
 -666.334043711525    0.00000000
 -666.196624746861    0.00000000

Left eigenvectors
=============================================
    1   -0.84391816   -0.57120978
    2    0.53647194   -0.82080411

Right eigenvectors
=============================================
VR    1   -0.82080411   -0.53647194
VR    2    0.57120978   -0.84391816
Target root:    1

MkCC iter. #  34      -666.3340437115247      -308.7330775529712        -0.0000000016219
ydot R:  0.000000353953  0.000000754549
Iter cpu           882.5         1046.9  34

Heff
=============================================
    0    1 -666.29189663    0.06056359
    0    2    0.06630112 -666.23877181

Eigenvalues (real and imaginary)
=============================================
 -666.334043719975    0.00000000
 -666.196624717277    0.00000000

Left eigenvectors
=============================================
    1   -0.84391812   -0.57120968
    2    0.53647201   -0.82080418

Right eigenvectors
=============================================
VR    1   -0.82080418   -0.53647201
VR    2    0.57120968   -0.84391812
Target root:    1

MkCC iter. #  35      -666.3340437199748      -308.7330775614213        -0.0000000084501
ydot R:  0.000000267840  0.000000555882

 X matrix
-------------------------

              1         2         3         4         5
    1  -0.08516   0.58025   1.55399  -8.69664   7.64755
-------------------------

Iter cpu           883.7         1061.5  35

Heff
=============================================
    0    1 -666.29189663    0.06056367
    0    2    0.06630113 -666.23877179

Eigenvalues (real and imaginary)
=============================================
 -666.334043754589    0.00000000
 -666.196624665063    0.00000000

Left eigenvectors
=============================================
    1   -0.84391795   -0.57120955
    2    0.53647227   -0.82080427

Right eigenvectors
=============================================
VR    1   -0.82080427   -0.53647227
VR    2    0.57120955   -0.84391795
Target root:    1

MkCC iter. #  36      -666.3340437545889      -308.7330775960354        -0.0000000346141
ydot R:  0.000000090085  0.000000215472
Iter cpu           883.3         1055.0  36

Heff
=============================================
    0    1 -666.29189663    0.06056366
    0    2    0.06630113 -666.23877183

Eigenvalues (real and imaginary)
=============================================
 -666.334043765188    0.00000000
 -666.196624696839    0.00000000

Left eigenvectors
=============================================
    1   -0.84391790   -0.57120962
    2    0.53647235   -0.82080422

Right eigenvectors
=============================================
VR    1   -0.82080422   -0.53647235
VR    2    0.57120962   -0.84391790
Target root:    1

MkCC iter. #  37      -666.3340437651880      -308.7330776066344        -0.0000000105990
ydot R:  0.000000043318  0.000000103504
Iter cpu           878.6         1045.4  37

Heff
=============================================
    0    1 -666.29189663    0.06056366
    0    2    0.06630113 -666.23877185

Eigenvalues (real and imaginary)
=============================================
 -666.334043765251    0.00000000
 -666.196624709246    0.00000000

Left eigenvectors
=============================================
    1   -0.84391787   -0.57120969
    2    0.53647240   -0.82080417

Right eigenvectors
=============================================
VR    1   -0.82080417   -0.53647240
VR    2    0.57120969   -0.84391787
Target root:    1

MkCC iter. #  38      -666.3340437652511      -308.7330776066975        -0.0000000000631
ydot R:  0.000000032552  0.000000071141
Iter cpu           887.0         1047.9  38

Heff
=============================================
    0    1 -666.29189662    0.06056366
    0    2    0.06630113 -666.23877186

Eigenvalues (real and imaginary)
=============================================
 -666.334043766135    0.00000000
 -666.196624717195    0.00000000

Left eigenvectors
=============================================
    1   -0.84391786   -0.57120972
    2    0.53647241   -0.82080415

Right eigenvectors
=============================================
VR    1   -0.82080415   -0.53647241
VR    2    0.57120972   -0.84391786
Target root:    1

MkCC iter. #  39      -666.3340437661349      -308.7330776075813        -0.0000000008838
ydot R:  0.000000025183  0.000000052645
Iter cpu           880.8         1042.7  39

Heff
=============================================
    0    1 -666.29189662    0.06056365
    0    2    0.06630113 -666.23877186

Eigenvalues (real and imaginary)
=============================================
 -666.334043766321    0.00000000
 -666.196624721783    0.00000000

Left eigenvectors
=============================================
    1   -0.84391785   -0.57120974
    2    0.53647242   -0.82080414

Right eigenvectors
=============================================
VR    1   -0.82080414   -0.53647242
VR    2    0.57120974   -0.84391785
Target root:    1

MkCC iter. #  40      -666.3340437663212      -308.7330776077677        -0.0000000001863

The MR-MkCCSD iteration has converged.

 
=====================================================================================================
 
 Mk-MRCCSD (Hartrees) =      -308.733077607767655
 
=====================================================================================================
 

 Task  times  cpu:    94585.9s     wall:   228948.0s
 Summary of allocated global arrays
-----------------------------------
  No active global arrays



                         GA Statistics for process    0
                         ------------------------------

       create   destroy   get      put      acc     scatter   gather  read&inc
calls: 1.03e+04 1.03e+04 8.57e+04 4.53e+04 5.57e+04    0        0     1.68e+08 
number of processes/call 1.00e+00 1.00e+00 1.00e+00 0.00e+00 0.00e+00
bytes total:             1.17e+09 3.57e+08 2.69e+08 0.00e+00 0.00e+00 1.34e+09
bytes remote:            0.00e+00 0.00e+00 0.00e+00 0.00e+00 0.00e+00 0.00e+00
Max memory consumed for GA by this process: 16850944 bytes
MA_summarize_allocated_blocks: starting scan ...
MA_summarize_allocated_blocks: scan completed: 0 heap blocks, 0 stack blocks
MA usage statistics:

	allocation statistics:
					      heap	     stack
					      ----	     -----
	current number of blocks	         0	         0
	maximum number of blocks	        17	        69
	current total bytes		         0	         0
	maximum total bytes		    178128	 368017416
	maximum total K-bytes		       179	    368018
	maximum total M-bytes		         1	       369


                                NWChem Input Module
                                -------------------





                                     CITATION
                                     --------
                Please cite the following reference when publishing
                           results obtained with NWChem:

                 M. Valiev, E.J. Bylaska, N. Govind, K. Kowalski,
              T.P. Straatsma, H.J.J. van Dam, D. Wang, J. Nieplocha,
                        E. Apra, T.L. Windus, W.A. de Jong
                 "NWChem: a comprehensive and scalable open-source
                  solution for large scale molecular simulations"
                      Comput. Phys. Commun. 181, 1477 (2010)
                           doi:10.1016/j.cpc.2010.04.018

                                      AUTHORS
                                      -------
          E. Apra, E. J. Bylaska, W. A. de Jong, N. Govind, K. Kowalski,
       T. P. Straatsma, M. Valiev, H. J. J. van Dam, D. Wang, T. L. Windus,
        J. Hammond, J. Autschbach, K. Bhaskaran-Nair, J. Brabec, K. Lopata,
       S. A. Fischer, S. Krishnamoorthy, W. Ma, M. Klemm, O. Villa, Y. Chen,
    V. Anisimov, F. Aquino, S. Hirata, M. T. Hackler, T. Risthaus, M. Malagoli,
       A. Marenich, A. Otero-de-la-Roza, J. Mullin, P. Nichols, R. Peverati,
     J. Pittner, Y. Zhao, P.-D. Fan, A. Fonari, M. Williamson, R. J. Harrison,
       J. R. Rehr, M. Dupuis, D. Silverstein, D. M. A. Smith, J. Nieplocha,
        V. Tipparaju, M. Krishnan, B. E. Van Kuiken, A. Vazquez-Mayagoitia,
        L. Jensen, M. Swart, Q. Wu, T. Van Voorhis, A. A. Auer, M. Nooijen,
      L. D. Crosby, E. Brown, G. Cisneros, G. I. Fann, H. Fruchtl, J. Garza,
        K. Hirao, R. A. Kendall, J. A. Nichols, K. Tsemekhman, K. Wolinski,
     J. Anchell, D. E. Bernholdt, P. Borowski, T. Clark, D. Clerc, H. Dachsel,
   M. J. O. Deegan, K. Dyall, D. Elwood, E. Glendening, M. Gutowski, A. C. Hess,
         J. Jaffe, B. G. Johnson, J. Ju, R. Kobayashi, R. Kutteh, Z. Lin,
   R. Littlefield, X. Long, B. Meng, T. Nakajima, S. Niu, L. Pollack, M. Rosing,
   K. Glaesemann, G. Sandrone, M. Stave, H. Taylor, G. Thomas, J. H. van Lenthe,
                               A. T. Wong, Z. Zhang.

 Total times  cpu:    94586.0s     wall:   228948.0s
