 argument  1 = triplet.nw
                                         
                                         


              Northwest Computational Chemistry Package (NWChem) 6.8
              ------------------------------------------------------


                    Environmental Molecular Sciences Laboratory
                       Pacific Northwest National Laboratory
                                Richland, WA 99352

                              Copyright (c) 1994-2017
                       Pacific Northwest National Laboratory
                            Battelle Memorial Institute

             NWChem is an open-source computational chemistry package
                        distributed under the terms of the
                      Educational Community License (ECL) 2.0
             A copy of the license is included with this distribution
                              in the LICENSE.TXT file

                                  ACKNOWLEDGMENT
                                  --------------

            This software and its documentation were developed at the
            EMSL at Pacific Northwest National Laboratory, a multiprogram
            national laboratory, operated for the U.S. Department of Energy
            by Battelle under Contract Number DE-AC05-76RL01830. Support
            for this work was provided by the Department of Energy Office
            of Biological and Environmental Research, Office of Basic
            Energy Sciences, and the Office of Advanced Scientific Computing.


           Job information
           ---------------

    hostname        = vladimir-Kubuntu-16
    program         = nwchem
    date            = Sat Dec 21 14:43:51 2019

    compiled        = Wed_Aug_15_19:14:19_2018
    source          = /home/edo/debichem-team/nwchem/nwchem-6.8.1
    nwchem branch   = 6.8.1
    nwchem revision = v6.8-133-ge032219
    ga revision     = 5.6.5
    use scalapack   = T
    input           = triplet.nw
    prefix          = triplet.
    data base       = ./triplet.db
    status          = startup
    nproc           =        1
    time left       =     -1s



           Memory information
           ------------------

    heap     =   13107196 doubles =    100.0 Mbytes
    stack    =   13107201 doubles =    100.0 Mbytes
    global   =   26214400 doubles =    200.0 Mbytes (distinct from heap & stack)
    total    =   52428797 doubles =    400.0 Mbytes
    verify   = yes
    hardfail = no 


           Directory information
           ---------------------

  0 permanent = .
  0 scratch   = .




                                NWChem Input Module
                                -------------------


               cubane T-biradical MP2/cc-pVDZ geometry optimization
               ----------------------------------------------------

 Scaling coordinates for geometry "geometry" by  1.889725989
 (inverse scale =  0.529177249)

 Turning off AUTOSYM since
 SYMMETRY directive was detected!


          ------
          auto-z
          ------


                             Geometry "geometry" -> ""
                             -------------------------

 Output coordinates in angstroms (scale by  1.889725989 to convert to a.u.)

  No.       Tag          Charge          X              Y              Z
 ---- ---------------- ---------- -------------- -------------- --------------
    1 H                    1.0000     2.06558205    -1.28286326     0.01750519
    2 C                    6.0000     1.07464059    -0.80757103    -0.05540536
    3 H                    1.0000     2.06558205     1.28286326     0.01750519
    4 C                    6.0000     1.07464059     0.80757103    -0.05540536
    5 H                    1.0000     0.00000000    -1.50306671    -2.06416749
    6 C                    6.0000     0.00000000    -1.33057164    -0.98025669
    7 H                    1.0000     0.00000000     1.50306671    -2.06416749
    8 C                    6.0000     0.00000000     1.33057164    -0.98025669
    9 H                    1.0000     0.00000000    -1.45938535     1.96438526
   10 C                    6.0000     0.00000000    -0.77726259     1.10186270
   11 H                    1.0000     0.00000000     1.45938535     1.96438526
   12 C                    6.0000     0.00000000     0.77726259     1.10186270
   13 H                    1.0000    -2.06558205    -1.28286326     0.01750519
   14 C                    6.0000    -1.07464059    -0.80757103    -0.05540536
   15 H                    1.0000    -2.06558205     1.28286326     0.01750519
   16 C                    6.0000    -1.07464059     0.80757103    -0.05540536

      Atomic Mass 
      ----------- 

      H                  1.007825
      C                 12.000000


 Effective nuclear repulsion energy (a.u.)     357.2184600884

            Nuclear Dipole moment (a.u.) 
            ----------------------------
        X                 Y               Z
 ---------------- ---------------- ----------------
    -0.0000000000     0.0000000000    -0.0000000000

      Symmetry information
      --------------------

 Group name             C2v       
 Group number             16
 Group order               4
 No. of unique centers     6

      Symmetry unique atoms

     1    2    5    6    9   10



                                Z-matrix (autoz)
                                -------- 

 Units are Angstrom for bonds and degrees for angles

      Type          Name      I     J     K     L     M      Value
      ----------- --------  ----- ----- ----- ----- ----- ----------
    1 Stretch                  1     2                       1.10145
    2 Stretch                  2     4                       1.61514
    3 Stretch                  2     6                       1.51120
    4 Stretch                  2    10                       1.57957
    5 Stretch                  3     4                       1.10145
    6 Stretch                  4     8                       1.51120
    7 Stretch                  4    12                       1.57957
    8 Stretch                  5     6                       1.09755
    9 Stretch                  6    14                       1.51120
   10 Stretch                  7     8                       1.09755
   11 Stretch                  8    16                       1.51120
   12 Stretch                  9    10                       1.09965
   13 Stretch                 10    12                       1.55453
   14 Stretch                 10    14                       1.57957
   15 Stretch                 11    12                       1.09965
   16 Stretch                 12    16                       1.57957
   17 Stretch                 13    14                       1.10145
   18 Stretch                 14    16                       1.61514
   19 Stretch                 15    16                       1.10145
   20 Bend                     1     2     4               115.56384
   21 Bend                     1     2     6               122.06921
   22 Bend                     1     2    10               124.88027
   23 Bend                     2     4     3               115.56384
   24 Bend                     2     4     8               110.24789
   25 Bend                     2     4    12                88.90055
   26 Bend                     2     6     5               131.20713
   27 Bend                     2     6    14                90.65164
   28 Bend                     2    10     9               124.24664
   29 Bend                     2    10    12                91.09945
   30 Bend                     2    10    14                85.74005
   31 Bend                     3     4     8               122.06921
   32 Bend                     3     4    12               124.88027
   33 Bend                     4     2     6               110.24789
   34 Bend                     4     2    10                88.90055
   35 Bend                     4     8     7               131.20713
   36 Bend                     4     8    16                90.65164
   37 Bend                     4    12    10                91.09945
   38 Bend                     4    12    11               124.24664
   39 Bend                     4    12    16                85.74005
   40 Bend                     5     6    14               131.20713
   41 Bend                     6     2    10                88.35078
   42 Bend                     6    14    10                88.35078
   43 Bend                     6    14    13               122.06921
   44 Bend                     6    14    16               110.24789
   45 Bend                     7     8    16               131.20713
   46 Bend                     8     4    12                88.35078
   47 Bend                     8    16    12                88.35078
   48 Bend                     8    16    14               110.24789
   49 Bend                     8    16    15               122.06921
   50 Bend                     9    10    12               128.33858
   51 Bend                     9    10    14               124.24664
   52 Bend                    10    12    11               128.33858
   53 Bend                    10    12    16                91.09945
   54 Bend                    10    14    13               124.88027
   55 Bend                    10    14    16                88.90055
   56 Bend                    11    12    16               124.24664
   57 Bend                    12    10    14                91.09945
   58 Bend                    12    16    14                88.90055
   59 Bend                    12    16    15               124.88027
   60 Bend                    13    14    16               115.56384
   61 Bend                    14    16    15               115.56384
   62 Torsion                  1     2     4     3           0.00000
   63 Torsion                  1     2     4     8         143.49231
   64 Torsion                  1     2     4    12        -128.67175
   65 Torsion                  1     2     6     5         -56.46283
   66 Torsion                  1     2     6    14         151.20311
   67 Torsion                  1     2    10     9         -18.93778
   68 Torsion                  1     2    10    12         120.84615
   69 Torsion                  1     2    10    14        -148.13308
   70 Torsion                  2     4     8     7         -84.24080
   71 Torsion                  2     4     8    16          68.09326
   72 Torsion                  2     4    12    10           0.00000
   73 Torsion                  2     4    12    11         139.78393
   74 Torsion                  2     4    12    16         -91.02078
   75 Torsion                  2     6    14    10         -20.12565
   76 Torsion                  2     6    14    13        -151.20311
   77 Torsion                  2     6    14    16          68.09326
   78 Torsion                  2    10    12     4           0.00000
   79 Torsion                  2    10    12    11        -137.12018
   80 Torsion                  2    10    12    16          85.75964
   81 Torsion                  2    10    14     6          19.27352
   82 Torsion                  2    10    14    13         148.13308
   83 Torsion                  2    10    14    16         -91.02078
   84 Torsion                  3     4     2     6        -143.49231
   85 Torsion                  3     4     2    10         128.67175
   86 Torsion                  3     4     8     7          56.46283
   87 Torsion                  3     4     8    16        -151.20311
   88 Torsion                  3     4    12    10        -120.84615
   89 Torsion                  3     4    12    11          18.93778
   90 Torsion                  3     4    12    16         148.13308
   91 Torsion                  4     2     6     5          84.24080
   92 Torsion                  4     2     6    14         -68.09326
   93 Torsion                  4     2    10     9        -139.78393
   94 Torsion                  4     2    10    12           0.00000
   95 Torsion                  4     2    10    14          91.02078
   96 Torsion                  4     8    16    12          20.12565
   97 Torsion                  4     8    16    14         -68.09326
   98 Torsion                  4     8    16    15         151.20311
   99 Torsion                  4    12    10     9         137.12018
  100 Torsion                  4    12    10    14         -85.75964
  101 Torsion                  4    12    16     8         -19.27352
  102 Torsion                  4    12    16    14          91.02078
  103 Torsion                  4    12    16    15        -148.13308
  104 Torsion                  5     6     2    10         172.45971
  105 Torsion                  5     6    14    10        -172.45971
  106 Torsion                  5     6    14    13          56.46283
  107 Torsion                  5     6    14    16         -84.24080
  108 Torsion                  6     2     4     8           0.00000
  109 Torsion                  6     2     4    12          87.83594
  110 Torsion                  6     2    10     9         109.92177
  111 Torsion                  6     2    10    12        -110.29429
  112 Torsion                  6     2    10    14         -19.27352
  113 Torsion                  6    14    10     9        -109.92177
  114 Torsion                  6    14    10    12         110.29429
  115 Torsion                  6    14    16     8           0.00000
  116 Torsion                  6    14    16    12         -87.83594
  117 Torsion                  6    14    16    15         143.49231
  118 Torsion                  7     8     4    12        -172.45971
  119 Torsion                  7     8    16    12         172.45971
  120 Torsion                  7     8    16    14          84.24080
  121 Torsion                  7     8    16    15         -56.46283
  122 Torsion                  8     4     2    10         -87.83594
  123 Torsion                  8     4    12    10         110.29429
  124 Torsion                  8     4    12    11        -109.92177
  125 Torsion                  8     4    12    16          19.27352
  126 Torsion                  8    16    12    10        -110.29429
  127 Torsion                  8    16    12    11         109.92177
  128 Torsion                  8    16    14    10          87.83594
  129 Torsion                  8    16    14    13        -143.49231
  130 Torsion                  9    10    12    11           0.00000
  131 Torsion                  9    10    12    16        -137.12018
  132 Torsion                  9    10    14    13          18.93778
  133 Torsion                  9    10    14    16         139.78393
  134 Torsion                 10     2     4    12           0.00000
  135 Torsion                 10     2     6    14          20.12565
  136 Torsion                 10    12    16    14           0.00000
  137 Torsion                 10    12    16    15         120.84615
  138 Torsion                 10    14    16    12           0.00000
  139 Torsion                 10    14    16    15        -128.67175
  140 Torsion                 11    12    10    14         137.12018
  141 Torsion                 11    12    16    14        -139.78393
  142 Torsion                 11    12    16    15         -18.93778
  143 Torsion                 12     4     8    16         -20.12565
  144 Torsion                 12    10    14    13        -120.84615
  145 Torsion                 12    10    14    16          -0.00000
  146 Torsion                 12    16    14    13         128.67175
  147 Torsion                 13    14    16    15           0.00000
  148 Torsion                 14    10    12    16           0.00000


            XYZ format geometry
            -------------------
    16
 geometry
 H                     2.06558205    -1.28286326     0.01750519
 C                     1.07464059    -0.80757103    -0.05540536
 H                     2.06558205     1.28286326     0.01750519
 C                     1.07464059     0.80757103    -0.05540536
 H                     0.00000000    -1.50306671    -2.06416749
 C                     0.00000000    -1.33057164    -0.98025669
 H                     0.00000000     1.50306671    -2.06416749
 C                     0.00000000     1.33057164    -0.98025669
 H                     0.00000000    -1.45938535     1.96438526
 C                     0.00000000    -0.77726259     1.10186270
 H                     0.00000000     1.45938535     1.96438526
 C                     0.00000000     0.77726259     1.10186270
 H                    -2.06558205    -1.28286326     0.01750519
 C                    -1.07464059    -0.80757103    -0.05540536
 H                    -2.06558205     1.28286326     0.01750519
 C                    -1.07464059     0.80757103    -0.05540536

 ==============================================================================
                                internuclear distances
 ------------------------------------------------------------------------------
       center one      |      center two      | atomic units |  angstroms
 ------------------------------------------------------------------------------
    2 C                |   1 H                |     2.08143  |     1.10145
    4 C                |   2 C                |     3.05218  |     1.61514
    4 C                |   3 H                |     2.08143  |     1.10145
    6 C                |   2 C                |     2.85576  |     1.51120
    6 C                |   5 H                |     2.07407  |     1.09755
    8 C                |   4 C                |     2.85576  |     1.51120
    8 C                |   7 H                |     2.07407  |     1.09755
   10 C                |   2 C                |     2.98495  |     1.57957
   10 C                |   9 H                |     2.07804  |     1.09965
   12 C                |   4 C                |     2.98495  |     1.57957
   12 C                |  10 C                |     2.93763  |     1.55453
   12 C                |  11 H                |     2.07804  |     1.09965
   14 C                |   6 C                |     2.85576  |     1.51120
   14 C                |  10 C                |     2.98495  |     1.57957
   14 C                |  13 H                |     2.08143  |     1.10145
   16 C                |   8 C                |     2.85576  |     1.51120
   16 C                |  12 C                |     2.98495  |     1.57957
   16 C                |  14 C                |     3.05218  |     1.61514
   16 C                |  15 H                |     2.08143  |     1.10145
 ------------------------------------------------------------------------------
                         number of included internuclear distances:         19
 ==============================================================================



 ==============================================================================
                                 internuclear angles
 ------------------------------------------------------------------------------
        center 1       |       center 2       |       center 3       |  degrees
 ------------------------------------------------------------------------------
    1 H                |   2 C                |   4 C                |   115.56
    1 H                |   2 C                |   6 C                |   122.07
    1 H                |   2 C                |  10 C                |   124.88
    4 C                |   2 C                |   6 C                |   110.25
    4 C                |   2 C                |  10 C                |    88.90
    6 C                |   2 C                |  10 C                |    88.35
    2 C                |   4 C                |   3 H                |   115.56
    2 C                |   4 C                |   8 C                |   110.25
    2 C                |   4 C                |  12 C                |    88.90
    3 H                |   4 C                |   8 C                |   122.07
    3 H                |   4 C                |  12 C                |   124.88
    8 C                |   4 C                |  12 C                |    88.35
    2 C                |   6 C                |   5 H                |   131.21
    2 C                |   6 C                |  14 C                |    90.65
    5 H                |   6 C                |  14 C                |   131.21
    4 C                |   8 C                |   7 H                |   131.21
    4 C                |   8 C                |  16 C                |    90.65
    7 H                |   8 C                |  16 C                |   131.21
    2 C                |  10 C                |   9 H                |   124.25
    2 C                |  10 C                |  12 C                |    91.10
    2 C                |  10 C                |  14 C                |    85.74
    9 H                |  10 C                |  12 C                |   128.34
    9 H                |  10 C                |  14 C                |   124.25
   12 C                |  10 C                |  14 C                |    91.10
    4 C                |  12 C                |  10 C                |    91.10
    4 C                |  12 C                |  11 H                |   124.25
    4 C                |  12 C                |  16 C                |    85.74
   10 C                |  12 C                |  11 H                |   128.34
   10 C                |  12 C                |  16 C                |    91.10
   11 H                |  12 C                |  16 C                |   124.25
    6 C                |  14 C                |  10 C                |    88.35
    6 C                |  14 C                |  13 H                |   122.07
    6 C                |  14 C                |  16 C                |   110.25
   10 C                |  14 C                |  13 H                |   124.88
   10 C                |  14 C                |  16 C                |    88.90
   13 H                |  14 C                |  16 C                |   115.56
    8 C                |  16 C                |  12 C                |    88.35
    8 C                |  16 C                |  14 C                |   110.25
    8 C                |  16 C                |  15 H                |   122.07
   12 C                |  16 C                |  14 C                |    88.90
   12 C                |  16 C                |  15 H                |   124.88
   14 C                |  16 C                |  15 H                |   115.56
 ------------------------------------------------------------------------------
                            number of included internuclear angles:         42
 ==============================================================================



  library name resolved from: environment
  library file name is: </home/vladimir/bin/nwchem-6.8/src/basis/libraries/>
  
                      Basis "ao basis" -> "" (spherical)
                      -----
  H (Hydrogen)
  ------------
            Exponent  Coefficients 
       -------------- ---------------------------------------------------------
  1 S  1.30100000E+01  0.019685
  1 S  1.96200000E+00  0.137977
  1 S  4.44600000E-01  0.478148

  2 S  1.22000000E-01  1.000000

  3 P  7.27000000E-01  1.000000

  C (Carbon)
  ----------
            Exponent  Coefficients 
       -------------- ---------------------------------------------------------
  1 S  6.66500000E+03  0.000692
  1 S  1.00000000E+03  0.005329
  1 S  2.28000000E+02  0.027077
  1 S  6.47100000E+01  0.101718
  1 S  2.10600000E+01  0.274740
  1 S  7.49500000E+00  0.448564
  1 S  2.79700000E+00  0.285074
  1 S  5.21500000E-01  0.015204

  2 S  6.66500000E+03 -0.000146
  2 S  1.00000000E+03 -0.001154
  2 S  2.28000000E+02 -0.005725
  2 S  6.47100000E+01 -0.023312
  2 S  2.10600000E+01 -0.063955
  2 S  7.49500000E+00 -0.149981
  2 S  2.79700000E+00 -0.127262
  2 S  5.21500000E-01  0.544529

  3 S  1.59600000E-01  1.000000

  4 P  9.43900000E+00  0.038109
  4 P  2.00200000E+00  0.209480
  4 P  5.45600000E-01  0.508557

  5 P  1.51700000E-01  1.000000

  6 D  5.50000000E-01  1.000000



 Summary of "ao basis" -> "" (spherical)
 ------------------------------------------------------------------------------
       Tag                 Description            Shells   Functions and Types
 ---------------- ------------------------------  ------  ---------------------
 H                          cc-pVDZ                  3        5   2s1p
 C                          cc-pVDZ                  6       14   3s2p1d




                           NWChem Geometry Optimization
                           ----------------------------




               cubane T-biradical MP2/cc-pVDZ geometry optimization


 maximum gradient threshold         (gmax) =   0.000450
 rms gradient threshold             (grms) =   0.000300
 maximum cartesian step threshold   (xmax) =   0.001800
 rms cartesian step threshold       (xrms) =   0.001200
 fixed trust radius                (trust) =   0.300000
 maximum step size to saddle      (sadstp) =   0.100000
 energy precision                  (eprec) =   1.0D-07
 maximum number of steps          (nptopt) =   20
 initial hessian option           (inhess) =    0
 line search option               (linopt) =    1
 hessian update option            (modupd) =    1
 saddle point option              (modsad) =    0
 initial eigen-mode to follow     (moddir) =    0
 initial variable to follow       (vardir) =    0
 follow first negative mode     (firstneg) =    T
 apply conjugacy                    (opcg) =    F
 source of zmatrix                         =   autoz   


          -------------------
          Energy Minimization
          -------------------


 Names of Z-matrix variables 
    1              2              3              4              5         
    6              7              8              9             10         
   11             12             13             14             15         
   16             17             18             19             20         
   21             22             23             24             25         
   26             27             28             29             30         
   31             32             33             34             35         
   36             37             38             39             40         
   41             42             43             44             45         
   46             47             48             49             50         
   51             52             53             54             55         
   56             57             58             59             60         
   61             62             63             64             65         
   66             67             68             69             70         
   71             72             73             74             75         
   76             77             78             79             80         
   81             82             83             84             85         
   86             87             88             89             90         
   91             92             93             94             95         
   96             97             98             99            100         
  101            102            103            104            105         
  106            107            108            109            110         
  111            112            113            114            115         
  116            117            118            119            120         
  121            122            123            124            125         
  126            127            128            129            130         
  131            132            133            134            135         
  136            137            138            139            140         
  141            142            143            144            145         
  146            147            148         

 Variables with the same non-blank name are constrained to be equal


 Using diagonal initial Hessian 
 Scaling for Hessian diagonals: bonds = 1.00  angles = 0.25  torsions = 0.10

          --------
          Step   0
          --------


                         Geometry "geometry" -> "geometry"
                         ---------------------------------

 Output coordinates in angstroms (scale by  1.889725989 to convert to a.u.)

  No.       Tag          Charge          X              Y              Z
 ---- ---------------- ---------- -------------- -------------- --------------
    1 H                    1.0000     2.06558205    -1.28286326     0.01750519
    2 C                    6.0000     1.07464059    -0.80757103    -0.05540536
    3 H                    1.0000     2.06558205     1.28286326     0.01750519
    4 C                    6.0000     1.07464059     0.80757103    -0.05540536
    5 H                    1.0000     0.00000000    -1.50306671    -2.06416749
    6 C                    6.0000     0.00000000    -1.33057164    -0.98025669
    7 H                    1.0000     0.00000000     1.50306671    -2.06416749
    8 C                    6.0000     0.00000000     1.33057164    -0.98025669
    9 H                    1.0000     0.00000000    -1.45938535     1.96438526
   10 C                    6.0000     0.00000000    -0.77726259     1.10186270
   11 H                    1.0000     0.00000000     1.45938535     1.96438526
   12 C                    6.0000     0.00000000     0.77726259     1.10186270
   13 H                    1.0000    -2.06558205    -1.28286326     0.01750519
   14 C                    6.0000    -1.07464059    -0.80757103    -0.05540536
   15 H                    1.0000    -2.06558205     1.28286326     0.01750519
   16 C                    6.0000    -1.07464059     0.80757103    -0.05540536

      Atomic Mass 
      ----------- 

      H                  1.007825
      C                 12.000000


 Effective nuclear repulsion energy (a.u.)     357.2184600884

            Nuclear Dipole moment (a.u.) 
            ----------------------------
        X                 Y               Z
 ---------------- ---------------- ----------------
    -0.0000000000     0.0000000000    -0.0000000000

      Symmetry information
      --------------------

 Group name             C2v       
 Group number             16
 Group order               4
 No. of unique centers     6

      Symmetry unique atoms

     1    2    5    6    9   10

                                 NWChem SCF Module
                                 -----------------


               cubane T-biradical MP2/cc-pVDZ geometry optimization



  ao basis        = "ao basis"
  functions       =   152
  atoms           =    16
  alpha electrons =    29
  beta  electrons =    27
  charge          =   0.00
  wavefunction    = UHF 
  input vectors   = atomic
  output vectors  = ./triplet.movecs
  use symmetry    = T
  symmetry adapt  = T


 Summary of "ao basis" -> "ao basis" (spherical)
 ------------------------------------------------------------------------------
       Tag                 Description            Shells   Functions and Types
 ---------------- ------------------------------  ------  ---------------------
 H                          cc-pVDZ                  3        5   2s1p
 C                          cc-pVDZ                  6       14   3s2p1d


      Symmetry analysis of basis
      --------------------------

        a1         47
        a2         29
        b1         29
        b2         47


 Forming initial guess at       0.2s


      Superposition of Atomic Density Guess
      -------------------------------------

 Sum of atomic energies:        -305.32340088

      Non-variational initial energy
      ------------------------------

 Total energy =    -311.174626
 1-e energy   =   -1117.797796
 2-e energy   =     449.404710
 HOMO         =      -0.167217
 LUMO         =      -0.114709


   Symmetry analysis of molecular orbitals - initial alpha
   -------------------------------------------------------

  Numbering of irreducible representations: 

     1 a1          2 a2          3 b1          4 b2      

  Orbital symmetries:

     1 a1          2 b2          3 b1          4 a1          5 a2      
     6 b2          7 a1          8 b2          9 a1         10 b2      
    11 b1         12 a1         13 b2         14 a2         15 a1      
    16 a1         17 b2         18 a1         19 b2         20 b1      
    21 a1         22 b1         23 b1         24 a2         25 a1      
    26 b2         27 a2         28 b2         29 a1         30 a1      
    31 b1         32 a1         33 b2         34 a1         35 a2      
    36 b1         37 b2         38 a1         39 b2      


   Symmetry analysis of molecular orbitals - initial beta
   ------------------------------------------------------

  Numbering of irreducible representations: 

     1 a1          2 a2          3 b1          4 b2      

  Orbital symmetries:

     1 a1          2 b2          3 b1          4 a1          5 a2      
     6 b2          7 a1          8 b2          9 a1         10 b2      
    11 b1         12 a1         13 b2         14 a2         15 a1      
    16 a1         17 b2         18 a1         19 b2         20 b1      
    21 a1         22 b1         23 b1         24 a2         25 a1      
    26 b2         27 a2         28 b2         29 a1         30 a1      
    31 b1         32 a1         33 b2         34 a1         35 a2      
    36 b1         37 b2         38 a1         39 b2      


 Starting SCF solution at       1.0s



 ----------------------------------------------
         Quadratically convergent UHF

 Convergence threshold     :          1.000E-06
 Maximum no. of iterations :           30
 Integral*density screening:          1.000E-08
 ----------------------------------------------


              iter       energy          gnorm     gmax       time
             ----- ------------------- --------- --------- --------
                 1     -307.2608691952  6.83D-01  1.16D-01      4.9
                 2     -307.3781218551  1.53D-01  2.69D-02     11.1
                 3     -307.3842334484  1.28D-02  1.83D-03     21.8
                 4     -307.3843004553  1.49D-04  2.81D-05     40.3
                 5     -307.3843004684  1.31D-07  2.87D-08     68.2


       Final UHF  results 
       ------------------ 

         Total SCF energy =   -307.384300468407
      One electron energy =  -1123.304882700986
      Two electron energy =    458.702122144213
 Nuclear repulsion energy =    357.218460088365

                       Sz =      1.0000
                 Sz(Sz+1) =      2.0000
                      S^2 =      2.0231

        Time for solution =     66.4s



       Symmetry analysis of molecular orbitals - alpha
       -----------------------------------------------

  Numbering of irreducible representations: 

     1 a1          2 a2          3 b1          4 b2      

  Orbital symmetries:

     1 a1          2 b2          3 b1          4 a1          5 a2      
     6 b2          7 a1          8 b2          9 a1         10 b2      
    11 b1         12 a1         13 b2         14 a2         15 a1      
    16 a1         17 b2         18 a1         19 b2         20 b1      
    21 a1         22 b1         23 a2         24 b1         25 b2      
    26 a1         27 a2         28 b2         29 a1         30 a1      
    31 a1         32 b1         33 b2         34 a1         35 a2      
    36 b2         37 a1         38 b2         39 b1      


       Symmetry analysis of molecular orbitals - beta
       ----------------------------------------------

  Numbering of irreducible representations: 

     1 a1          2 a2          3 b1          4 b2      

  Orbital symmetries:

     1 a1          2 b1          3 b2          4 a2          5 a1      
     6 b2          7 b2          8 a1          9 a1         10 b2      
    11 b1         12 a1         13 a2         14 b2         15 a1      
    16 a1         17 b2         18 a1         19 b2         20 b1      
    21 b1         22 a1         23 a2         24 b1         25 b2      
    26 a1         27 a2         28 b2         29 a1         30 a1      
    31 b1         32 a1         33 b2         34 a1         35 a2      
    36 b2         37 b1         38 a1         39 b2      

          Final alpha eigenvalues
          -----------------------

              1      
    1  -11.2380
    2  -11.2379
    3  -11.2374
    4  -11.2371
    5  -11.2370
    6  -11.2368
    7  -11.2336
    8  -11.2331
    9   -1.2303
   10   -1.0601
   11   -0.9656
   12   -0.9521
   13   -0.8083
   14   -0.7878
   15   -0.7708
   16   -0.7039
   17   -0.6543
   18   -0.6335
   19   -0.6120
   20   -0.5749
   21   -0.5488
   22   -0.5274
   23   -0.4512
   24   -0.4402
   25   -0.4141
   26   -0.4133
   27   -0.3817
   28   -0.3713
   29   -0.3043
   30    0.1868
   31    0.2000
   32    0.2092
   33    0.2293
   34    0.2379
   35    0.2545
   36    0.2598
   37    0.2687
   38    0.2695
   39    0.2750

          Final beta eigenvalues
          ----------------------

              1      
    1  -11.2382
    2  -11.2382
    3  -11.2378
    4  -11.2378
    5  -11.2324
    6  -11.2319
    7  -11.2124
    8  -11.2124
    9   -1.2127
   10   -1.0194
   11   -0.9587
   12   -0.9122
   13   -0.7850
   14   -0.7689
   15   -0.7351
   16   -0.6923
   17   -0.6401
   18   -0.6062
   19   -0.6032
   20   -0.5694
   21   -0.5182
   22   -0.4943
   23   -0.4356
   24   -0.4235
   25   -0.4053
   26   -0.4025
   27   -0.3804
   28    0.1249
   29    0.1428
   30    0.1931
   31    0.2106
   32    0.2155
   33    0.2365
   34    0.2443
   35    0.2578
   36    0.2643
   37    0.2762
   38    0.2765
   39    0.2774

                    UHF Final Alpha Molecular Orbital Analysis
                    ------------------------------------------

 Vector    9  Occ=1.000000D+00  E=-1.230292D+00  Symmetry=a1
              MO Center=  1.7D-16, -1.5D-17,  1.2D-01, r^2= 1.8D+00
   Bfn.  Coefficient  Atom+Function         Bfn.  Coefficient  Atom+Function  
  ----- ------------  ---------------      ----- ------------  ---------------
    83      0.150418  10 C  s               102      0.150418  12 C  s         

 Vector   10  Occ=1.000000D+00  E=-1.060101D+00  Symmetry=b2
              MO Center=  1.7D-16, -8.1D-16, -2.6D-01, r^2= 2.6D+00
   Bfn.  Coefficient  Atom+Function         Bfn.  Coefficient  Atom+Function  
  ----- ------------  ---------------      ----- ------------  ---------------
    45      0.204133   6 C  s                64     -0.204133   8 C  s         

 Vector   11  Occ=1.000000D+00  E=-9.656263D-01  Symmetry=b1
              MO Center= -7.3D-17, -8.1D-17,  1.5D-03, r^2= 2.8D+00
   Bfn.  Coefficient  Atom+Function         Bfn.  Coefficient  Atom+Function  
  ----- ------------  ---------------      ----- ------------  ---------------
     7      0.196821   2 C  s                26      0.196821   4 C  s         
   121     -0.196821  14 C  s               140     -0.196821  16 C  s         
     8      0.169956   2 C  s                27      0.169956   4 C  s         
   122     -0.169956  14 C  s               141     -0.169956  16 C  s         

 Vector   12  Occ=1.000000D+00  E=-9.521233D-01  Symmetry=a1
              MO Center= -5.3D-17,  3.1D-16,  1.2D-02, r^2= 3.1D+00
   Bfn.  Coefficient  Atom+Function         Bfn.  Coefficient  Atom+Function  
  ----- ------------  ---------------      ----- ------------  ---------------
    45      0.200342   6 C  s                64      0.200342   8 C  s         
    83     -0.191316  10 C  s               102     -0.191316  12 C  s         
    46      0.189224   6 C  s                65      0.189224   8 C  s         
    84     -0.176568  10 C  s               103     -0.176568  12 C  s         

 Vector   13  Occ=1.000000D+00  E=-8.083273D-01  Symmetry=b2
              MO Center= -6.1D-18,  3.6D-16,  1.1D-02, r^2= 4.1D+00
   Bfn.  Coefficient  Atom+Function         Bfn.  Coefficient  Atom+Function  
  ----- ------------  ---------------      ----- ------------  ---------------
    84      0.246466  10 C  s               103     -0.246466  12 C  s         
    46     -0.196196   6 C  s                65      0.196196   8 C  s         
    45     -0.183793   6 C  s                64      0.183793   8 C  s         
    83      0.183104  10 C  s               102     -0.183104  12 C  s         

 Vector   14  Occ=1.000000D+00  E=-7.877872D-01  Symmetry=a2
              MO Center=  6.4D-16,  2.4D-14, -1.0D-01, r^2= 3.9D+00
   Bfn.  Coefficient  Atom+Function         Bfn.  Coefficient  Atom+Function  
  ----- ------------  ---------------      ----- ------------  ---------------
     8      0.202928   2 C  s                27     -0.202928   4 C  s         
   122     -0.202928  14 C  s               141      0.202928  16 C  s         
     7      0.176066   2 C  s                26     -0.176066   4 C  s         
   121     -0.176066  14 C  s               140      0.176066  16 C  s         

 Vector   15  Occ=1.000000D+00  E=-7.707619D-01  Symmetry=a1
              MO Center= -2.8D-16, -4.8D-16, -3.2D-02, r^2= 4.2D+00
   Bfn.  Coefficient  Atom+Function         Bfn.  Coefficient  Atom+Function  
  ----- ------------  ---------------      ----- ------------  ---------------
    46      0.191914   6 C  s                65      0.191914   8 C  s         

 Vector   16  Occ=1.000000D+00  E=-7.039475D-01  Symmetry=a1
              MO Center= -4.9D-15, -1.2D-15,  2.6D-01, r^2= 4.3D+00
   Bfn.  Coefficient  Atom+Function         Bfn.  Coefficient  Atom+Function  
  ----- ------------  ---------------      ----- ------------  ---------------
     9      0.150313   2 C  px               28      0.150313   4 C  px        
   123     -0.150313  14 C  px              142     -0.150313  16 C  px        

 Vector   17  Occ=1.000000D+00  E=-6.543145D-01  Symmetry=b2
              MO Center= -2.7D-16, -3.9D-15,  1.6D-01, r^2= 5.1D+00
   Bfn.  Coefficient  Atom+Function         Bfn.  Coefficient  Atom+Function  
  ----- ------------  ---------------      ----- ------------  ---------------
    77      0.192465   9 H  s                96     -0.192465  11 H  s         
    39      0.161382   5 H  s                58     -0.161382   7 H  s         

 Vector   18  Occ=1.000000D+00  E=-6.335042D-01  Symmetry=a1
              MO Center=  2.3D-15, -1.9D-15, -4.4D-01, r^2= 3.4D+00
   Bfn.  Coefficient  Atom+Function         Bfn.  Coefficient  Atom+Function  
  ----- ------------  ---------------      ----- ------------  ---------------
    49      0.236843   6 C  pz               68      0.236843   8 C  pz        
    86     -0.180850  10 C  py              105      0.180850  12 C  py        
    39     -0.176322   5 H  s                58     -0.176322   7 H  s         

 Vector   19  Occ=1.000000D+00  E=-6.119514D-01  Symmetry=b2
              MO Center= -4.8D-16, -2.8D-14, -1.1D-01, r^2= 4.5D+00
   Bfn.  Coefficient  Atom+Function         Bfn.  Coefficient  Atom+Function  
  ----- ------------  ---------------      ----- ------------  ---------------
     9      0.185660   2 C  px               28     -0.185660   4 C  px        
   123     -0.185660  14 C  px              142      0.185660  16 C  px        
     1      0.181085   1 H  s                20     -0.181085   3 H  s         
   115      0.181085  13 H  s               134     -0.181085  15 H  s         
    49     -0.150234   6 C  pz               68      0.150234   8 C  pz        

 Vector   20  Occ=1.000000D+00  E=-5.749121D-01  Symmetry=b1
              MO Center=  9.1D-16, -2.3D-15,  8.8D-02, r^2= 3.2D+00
   Bfn.  Coefficient  Atom+Function         Bfn.  Coefficient  Atom+Function  
  ----- ------------  ---------------      ----- ------------  ---------------
    85      0.203140  10 C  px              104      0.203140  12 C  px        
    11      0.158465   2 C  pz               30      0.158465   4 C  pz        
   125     -0.158465  14 C  pz              144     -0.158465  16 C  pz        
    47     -0.152856   6 C  px               66     -0.152856   8 C  px        

 Vector   21  Occ=1.000000D+00  E=-5.487770D-01  Symmetry=a1
              MO Center= -6.0D-19, -1.5D-16,  2.4D-01, r^2= 3.9D+00
   Bfn.  Coefficient  Atom+Function         Bfn.  Coefficient  Atom+Function  
  ----- ------------  ---------------      ----- ------------  ---------------
    48      0.219441   6 C  py               67     -0.219441   8 C  py        
    77      0.198630   9 H  s                96      0.198630  11 H  s         
    87      0.183714  10 C  pz              106      0.183714  12 C  pz        

 Vector   22  Occ=1.000000D+00  E=-5.273702D-01  Symmetry=b1
              MO Center=  6.8D-16,  6.5D-17, -2.3D-01, r^2= 3.7D+00
   Bfn.  Coefficient  Atom+Function         Bfn.  Coefficient  Atom+Function  
  ----- ------------  ---------------      ----- ------------  ---------------
    47      0.205926   6 C  px               66      0.205926   8 C  px        
     9     -0.172850   2 C  px               28     -0.172850   4 C  px        
   123     -0.172850  14 C  px              142     -0.172850  16 C  px        
     1     -0.164742   1 H  s                20     -0.164742   3 H  s         
   115      0.164742  13 H  s               134      0.164742  15 H  s         

 Vector   23  Occ=1.000000D+00  E=-4.512226D-01  Symmetry=a2
              MO Center= -3.6D-15, -9.9D-15, -4.0D-01, r^2= 3.5D+00
   Bfn.  Coefficient  Atom+Function         Bfn.  Coefficient  Atom+Function  
  ----- ------------  ---------------      ----- ------------  ---------------
    47      0.298471   6 C  px               66     -0.298471   8 C  px        
    50      0.154248   6 C  px               69     -0.154248   8 C  px        
     9     -0.153313   2 C  px               11     -0.153185   2 C  pz        
    28      0.153313   4 C  px               30      0.153185   4 C  pz        
   123     -0.153313  14 C  px              125      0.153185  14 C  pz        

 Vector   24  Occ=1.000000D+00  E=-4.402332D-01  Symmetry=b1
              MO Center=  1.3D-15,  6.0D-15,  6.5D-02, r^2= 2.8D+00
   Bfn.  Coefficient  Atom+Function         Bfn.  Coefficient  Atom+Function  
  ----- ------------  ---------------      ----- ------------  ---------------
    10      0.239498   2 C  py               29     -0.239498   4 C  py        
   124     -0.239498  14 C  py              143      0.239498  16 C  py        
    85     -0.184005  10 C  px              104     -0.184005  12 C  px        

 Vector   25  Occ=1.000000D+00  E=-4.141366D-01  Symmetry=b2
              MO Center= -2.4D-15,  1.0D-14,  1.8D-01, r^2= 3.7D+00
   Bfn.  Coefficient  Atom+Function         Bfn.  Coefficient  Atom+Function  
  ----- ------------  ---------------      ----- ------------  ---------------
    87      0.252749  10 C  pz              106     -0.252749  12 C  pz        
    49      0.185169   6 C  pz               68     -0.185169   8 C  pz        
    11     -0.181895   2 C  pz               30      0.181895   4 C  pz        
   125     -0.181895  14 C  pz              144      0.181895  16 C  pz        
    77      0.179972   9 H  s                96     -0.179972  11 H  s         

 Vector   26  Occ=1.000000D+00  E=-4.133006D-01  Symmetry=a1
              MO Center=  6.5D-16,  1.9D-15,  4.7D-01, r^2= 3.1D+00
   Bfn.  Coefficient  Atom+Function         Bfn.  Coefficient  Atom+Function  
  ----- ------------  ---------------      ----- ------------  ---------------
    86      0.320145  10 C  py              105     -0.320145  12 C  py        
    89      0.197369  10 C  py              108     -0.197369  12 C  py        
    49      0.156983   6 C  pz               68      0.156983   8 C  pz        
    87      0.150805  10 C  pz              106      0.150805  12 C  pz        

 Vector   27  Occ=1.000000D+00  E=-3.816613D-01  Symmetry=a2
              MO Center=  7.4D-15, -9.8D-16,  4.6D-01, r^2= 3.0D+00
   Bfn.  Coefficient  Atom+Function         Bfn.  Coefficient  Atom+Function  
  ----- ------------  ---------------      ----- ------------  ---------------
    85      0.298097  10 C  px              104     -0.298097  12 C  px        
    88      0.197479  10 C  px              107     -0.197479  12 C  px        
     9     -0.163352   2 C  px               28      0.163352   4 C  px        
   123     -0.163352  14 C  px              142      0.163352  16 C  px        
    11      0.159256   2 C  pz               30     -0.159256   4 C  pz        

 Vector   28  Occ=1.000000D+00  E=-3.712834D-01  Symmetry=b2
              MO Center=  1.0D-17,  3.8D-16, -8.8D-01, r^2= 3.3D+00
   Bfn.  Coefficient  Atom+Function         Bfn.  Coefficient  Atom+Function  
  ----- ------------  ---------------      ----- ------------  ---------------
    48      0.416451   6 C  py               67      0.416451   8 C  py        
    51      0.348008   6 C  py               70      0.348008   8 C  py        

 Vector   29  Occ=1.000000D+00  E=-3.042962D-01  Symmetry=a1
              MO Center= -1.9D-15, -1.3D-14, -5.2D-01, r^2= 3.7D+00
   Bfn.  Coefficient  Atom+Function         Bfn.  Coefficient  Atom+Function  
  ----- ------------  ---------------      ----- ------------  ---------------
    51      0.335549   6 C  py               70     -0.335549   8 C  py        
    48      0.324913   6 C  py               67     -0.324913   8 C  py        
    10     -0.192510   2 C  py               29      0.192510   4 C  py        
   124     -0.192510  14 C  py              143      0.192510  16 C  py        

 Vector   30  Occ=0.000000D+00  E= 1.867605D-01  Symmetry=a1
              MO Center= -7.7D-15, -1.6D-15,  4.4D-01, r^2= 1.0D+01
   Bfn.  Coefficient  Atom+Function         Bfn.  Coefficient  Atom+Function  
  ----- ------------  ---------------      ----- ------------  ---------------
     2      0.761579   1 H  s                21      0.761579   3 H  s         
    78      0.762348   9 H  s                97      0.762348  11 H  s         
   116      0.761579  13 H  s               135      0.761579  15 H  s         
    84     -0.580277  10 C  s               103     -0.580277  12 C  s         
     8     -0.532466   2 C  s                27     -0.532466   4 C  s         

 Vector   31  Occ=0.000000D+00  E= 2.000069D-01  Symmetry=a1
              MO Center=  3.4D-16, -1.0D-15, -1.1D+00, r^2= 7.6D+00
   Bfn.  Coefficient  Atom+Function         Bfn.  Coefficient  Atom+Function  
  ----- ------------  ---------------      ----- ------------  ---------------
    40      1.140098   5 H  s                59      1.140098   7 H  s         
    46     -0.965081   6 C  s                65     -0.965081   8 C  s         
    84      0.891509  10 C  s               103      0.891509  12 C  s         
    52      0.540239   6 C  pz               71      0.540239   8 C  pz        
    78     -0.428752   9 H  s                97     -0.428752  11 H  s         

 Vector   32  Occ=0.000000D+00  E= 2.091612D-01  Symmetry=b1
              MO Center=  1.2D-14,  5.7D-17,  1.2D-01, r^2= 8.9D+00
   Bfn.  Coefficient  Atom+Function         Bfn.  Coefficient  Atom+Function  
  ----- ------------  ---------------      ----- ------------  ---------------
     8      0.992474   2 C  s                27      0.992474   4 C  s         
   122     -0.992474  14 C  s               141     -0.992474  16 C  s         
     2     -0.885242   1 H  s                21     -0.885242   3 H  s         
   116      0.885242  13 H  s               135      0.885242  15 H  s         
    88     -0.383056  10 C  px              107     -0.383056  12 C  px        

 Vector   33  Occ=0.000000D+00  E= 2.293472D-01  Symmetry=b2
              MO Center=  2.4D-17,  2.0D-15,  9.6D-01, r^2= 9.9D+00
   Bfn.  Coefficient  Atom+Function         Bfn.  Coefficient  Atom+Function  
  ----- ------------  ---------------      ----- ------------  ---------------
    78      1.269724   9 H  s                97     -1.269724  11 H  s         
    90     -0.734407  10 C  pz              109      0.734407  12 C  pz        
     2      0.646999   1 H  s                 8     -0.649568   2 C  s         
    21     -0.646999   3 H  s                27      0.649568   4 C  s         
   116      0.646999  13 H  s               122     -0.649568  14 C  s         

 Vector   34  Occ=0.000000D+00  E= 2.379056D-01  Symmetry=a1
              MO Center=  3.8D-14,  9.1D-14,  3.6D-01, r^2= 1.0D+01
   Bfn.  Coefficient  Atom+Function         Bfn.  Coefficient  Atom+Function  
  ----- ------------  ---------------      ----- ------------  ---------------
    78      1.027494   9 H  s                97      1.027494  11 H  s         
    84     -0.889088  10 C  s               103     -0.889088  12 C  s         
    40      0.836813   5 H  s                59      0.836813   7 H  s         
     2     -0.658849   1 H  s                21     -0.658849   3 H  s         
   116     -0.658849  13 H  s               135     -0.658849  15 H  s         

 Vector   35  Occ=0.000000D+00  E= 2.545095D-01  Symmetry=a2
              MO Center=  2.9D-15,  3.5D-17,  3.7D-02, r^2= 1.1D+01
   Bfn.  Coefficient  Atom+Function         Bfn.  Coefficient  Atom+Function  
  ----- ------------  ---------------      ----- ------------  ---------------
     2      1.289222   1 H  s                21     -1.289222   3 H  s         
   116     -1.289222  13 H  s               135      1.289222  15 H  s         
    12     -0.826651   2 C  px               31      0.826651   4 C  px        
   126     -0.826651  14 C  px              145      0.826651  16 C  px        
     8     -0.821292   2 C  s                27      0.821292   4 C  s         

 Vector   36  Occ=0.000000D+00  E= 2.597564D-01  Symmetry=b2
              MO Center= -2.7D-16, -4.5D-14, -7.2D-01, r^2= 1.1D+01
   Bfn.  Coefficient  Atom+Function         Bfn.  Coefficient  Atom+Function  
  ----- ------------  ---------------      ----- ------------  ---------------
    46     -1.323000   6 C  s                65      1.323000   8 C  s         
    40      1.276286   5 H  s                59     -1.276286   7 H  s         
    78     -1.184225   9 H  s                97      1.184225  11 H  s         
    90      0.930537  10 C  pz              109     -0.930537  12 C  pz        
    89     -0.596359  10 C  py              108     -0.596359  12 C  py        

 Vector   37  Occ=0.000000D+00  E= 2.687494D-01  Symmetry=a1
              MO Center= -4.6D-16,  1.1D-14,  3.3D-01, r^2= 7.6D+00
   Bfn.  Coefficient  Atom+Function         Bfn.  Coefficient  Atom+Function  
  ----- ------------  ---------------      ----- ------------  ---------------
    78      1.004130   9 H  s                97      1.004130  11 H  s         
    90     -0.933230  10 C  pz              109     -0.933230  12 C  pz        
    40     -0.772192   5 H  s                59     -0.772192   7 H  s         
    52     -0.703584   6 C  pz               71     -0.703584   8 C  pz        
    14     -0.467835   2 C  pz               33     -0.467835   4 C  pz        

 Vector   38  Occ=0.000000D+00  E= 2.694782D-01  Symmetry=b2
              MO Center=  3.1D-15, -6.2D-14, -3.9D-01, r^2= 1.2D+01
   Bfn.  Coefficient  Atom+Function         Bfn.  Coefficient  Atom+Function  
  ----- ------------  ---------------      ----- ------------  ---------------
     2      1.218094   1 H  s                21     -1.218094   3 H  s         
   116      1.218094  13 H  s               135     -1.218094  15 H  s         
    12     -1.193967   2 C  px               31      1.193967   4 C  px        
   126      1.193967  14 C  px              145     -1.193967  16 C  px        
    40     -1.124298   5 H  s                59      1.124298   7 H  s         

 Vector   39  Occ=0.000000D+00  E= 2.750253D-01  Symmetry=b1
              MO Center= -4.4D-14,  2.7D-16,  3.6D-01, r^2= 6.6D+00
   Bfn.  Coefficient  Atom+Function         Bfn.  Coefficient  Atom+Function  
  ----- ------------  ---------------      ----- ------------  ---------------
     2      0.828150   1 H  s                21      0.828150   3 H  s         
   116     -0.828150  13 H  s               135     -0.828150  15 H  s         
    12     -0.810616   2 C  px               31     -0.810616   4 C  px        
   126     -0.810616  14 C  px              145     -0.810616  16 C  px        
    88     -0.687027  10 C  px              107     -0.687027  12 C  px        

 Vector   40  Occ=0.000000D+00  E= 3.181377D-01  Symmetry=b2
              MO Center= -1.7D-16, -1.0D-14,  7.3D-01, r^2= 4.6D+00
   Bfn.  Coefficient  Atom+Function         Bfn.  Coefficient  Atom+Function  
  ----- ------------  ---------------      ----- ------------  ---------------
    89      1.359744  10 C  py              108      1.359744  12 C  py        
    84      0.904621  10 C  s               103     -0.904621  12 C  s         
    78      0.682442   9 H  s                97     -0.682442  11 H  s         
     8      0.569503   2 C  s                13      0.569292   2 C  py        
    27     -0.569503   4 C  s                32      0.569292   4 C  py        

 Vector   41  Occ=0.000000D+00  E= 3.666573D-01  Symmetry=a2
              MO Center= -1.0D-16,  4.4D-16,  1.4D-02, r^2= 4.6D+00
   Bfn.  Coefficient  Atom+Function         Bfn.  Coefficient  Atom+Function  
  ----- ------------  ---------------      ----- ------------  ---------------
    13      1.123828   2 C  py               32      1.123828   4 C  py        
   127     -1.123828  14 C  py              146     -1.123828  16 C  py        
    88      0.615650  10 C  px              107     -0.615650  12 C  px        
     8      0.331879   2 C  s                27     -0.331879   4 C  s         
   122     -0.331879  14 C  s               141      0.331879  16 C  s         

 Vector   42  Occ=0.000000D+00  E= 3.728200D-01  Symmetry=b1
              MO Center=  1.1D-15, -2.7D-15, -4.2D-01, r^2= 4.8D+00
   Bfn.  Coefficient  Atom+Function         Bfn.  Coefficient  Atom+Function  
  ----- ------------  ---------------      ----- ------------  ---------------
    50      1.222221   6 C  px               69      1.222221   8 C  px        
    14      0.743155   2 C  pz               33      0.743155   4 C  pz        
   128     -0.743155  14 C  pz              147     -0.743155  16 C  pz        
     8     -0.557800   2 C  s                27     -0.557800   4 C  s         
   122      0.557800  14 C  s               141      0.557800  16 C  s         

 Vector   43  Occ=0.000000D+00  E= 4.000711D-01  Symmetry=b2
              MO Center= -5.2D-16,  3.6D-15, -1.2D-01, r^2= 5.5D+00
   Bfn.  Coefficient  Atom+Function         Bfn.  Coefficient  Atom+Function  
  ----- ------------  ---------------      ----- ------------  ---------------
    84      1.509878  10 C  s               103     -1.509878  12 C  s         
    90     -1.294887  10 C  pz              109      1.294887  12 C  pz        
    46     -1.136978   6 C  s                65      1.136978   8 C  s         
    14     -1.067956   2 C  pz               33      1.067956   4 C  pz        
   128     -1.067956  14 C  pz              147      1.067956  16 C  pz        

 Vector   44  Occ=0.000000D+00  E= 4.125270D-01  Symmetry=a2
              MO Center=  8.0D-15, -1.6D-13, -3.4D-01, r^2= 6.6D+00
   Bfn.  Coefficient  Atom+Function         Bfn.  Coefficient  Atom+Function  
  ----- ------------  ---------------      ----- ------------  ---------------
     8      1.885095   2 C  s                27     -1.885095   4 C  s         
   122     -1.885095  14 C  s               141      1.885095  16 C  s         
    12     -1.389790   2 C  px               31      1.389790   4 C  px        
   126     -1.389790  14 C  px              145      1.389790  16 C  px        
    50     -1.125923   6 C  px               69      1.125923   8 C  px        

 Vector   45  Occ=0.000000D+00  E= 4.139845D-01  Symmetry=a1
              MO Center=  3.2D-16,  8.7D-16, -1.0D-01, r^2= 5.8D+00
   Bfn.  Coefficient  Atom+Function         Bfn.  Coefficient  Atom+Function  
  ----- ------------  ---------------      ----- ------------  ---------------
    46      2.179022   6 C  s                65      2.179022   8 C  s         
     8     -1.951092   2 C  s                27     -1.951092   4 C  s         
   122     -1.951092  14 C  s               141     -1.951092  16 C  s         
    84      1.444242  10 C  s               103      1.444242  12 C  s         
    52      1.361955   6 C  pz               71      1.361955   8 C  pz        

 Vector   46  Occ=0.000000D+00  E= 5.107130D-01  Symmetry=b2
              MO Center= -5.5D-15,  5.4D-15,  2.6D-01, r^2= 5.4D+00
   Bfn.  Coefficient  Atom+Function         Bfn.  Coefficient  Atom+Function  
  ----- ------------  ---------------      ----- ------------  ---------------
    89      1.827381  10 C  py              108      1.827381  12 C  py        
    46     -1.601557   6 C  s                65      1.601557   8 C  s         
    13     -1.544603   2 C  py               32     -1.544603   4 C  py        
   127     -1.544603  14 C  py              146     -1.544603  16 C  py        
    84      1.382621  10 C  s               103     -1.382621  12 C  s         


                     UHF Final Beta Molecular Orbital Analysis
                     -----------------------------------------

 Vector    9  Occ=1.000000D+00  E=-1.212652D+00  Symmetry=a1
              MO Center=  5.0D-16,  4.8D-16,  2.1D-01, r^2= 1.7D+00
   Bfn.  Coefficient  Atom+Function         Bfn.  Coefficient  Atom+Function  
  ----- ------------  ---------------      ----- ------------  ---------------
    83      0.159828  10 C  s               102      0.159828  12 C  s         

 Vector   10  Occ=1.000000D+00  E=-1.019420D+00  Symmetry=b2
              MO Center=  3.8D-16, -1.5D-15, -6.0D-02, r^2= 2.5D+00
   Bfn.  Coefficient  Atom+Function         Bfn.  Coefficient  Atom+Function  
  ----- ------------  ---------------      ----- ------------  ---------------
    45      0.156460   6 C  s                64     -0.156460   8 C  s         

 Vector   11  Occ=1.000000D+00  E=-9.586565D-01  Symmetry=b1
              MO Center= -4.9D-16,  4.4D-18,  8.5D-03, r^2= 2.8D+00
   Bfn.  Coefficient  Atom+Function         Bfn.  Coefficient  Atom+Function  
  ----- ------------  ---------------      ----- ------------  ---------------
     7      0.197901   2 C  s                26      0.197901   4 C  s         
   121     -0.197901  14 C  s               140     -0.197901  16 C  s         
     8      0.172960   2 C  s                27      0.172960   4 C  s         
   122     -0.172960  14 C  s               141     -0.172960  16 C  s         

 Vector   12  Occ=1.000000D+00  E=-9.121781D-01  Symmetry=a1
              MO Center=  7.0D-16,  2.4D-15,  2.2D-01, r^2= 3.0D+00
   Bfn.  Coefficient  Atom+Function         Bfn.  Coefficient  Atom+Function  
  ----- ------------  ---------------      ----- ------------  ---------------
    84      0.200373  10 C  s               103      0.200373  12 C  s         
    83      0.198466  10 C  s               102      0.198466  12 C  s         
    45     -0.162520   6 C  s                64     -0.162520   8 C  s         

 Vector   13  Occ=1.000000D+00  E=-7.849962D-01  Symmetry=a2
              MO Center=  9.1D-17,  3.2D-17, -8.6D-02, r^2= 3.9D+00
   Bfn.  Coefficient  Atom+Function         Bfn.  Coefficient  Atom+Function  
  ----- ------------  ---------------      ----- ------------  ---------------
     8      0.203872   2 C  s                27     -0.203872   4 C  s         
   122     -0.203872  14 C  s               141      0.203872  16 C  s         
     7      0.181175   2 C  s                26     -0.181175   4 C  s         
   121     -0.181175  14 C  s               140      0.181175  16 C  s         

 Vector   14  Occ=1.000000D+00  E=-7.689213D-01  Symmetry=b2
              MO Center= -2.2D-20,  1.5D-15,  1.3D-01, r^2= 4.2D+00
   Bfn.  Coefficient  Atom+Function         Bfn.  Coefficient  Atom+Function  
  ----- ------------  ---------------      ----- ------------  ---------------
    84      0.255853  10 C  s               103     -0.255853  12 C  s         
    83      0.181515  10 C  s               102     -0.181515  12 C  s         
    45     -0.173795   6 C  s                64      0.173795   8 C  s         
    77      0.169773   9 H  s                96     -0.169773  11 H  s         

 Vector   15  Occ=1.000000D+00  E=-7.350686D-01  Symmetry=a1
              MO Center= -1.0D-15,  6.6D-15, -2.6D-01, r^2= 4.2D+00
   Bfn.  Coefficient  Atom+Function         Bfn.  Coefficient  Atom+Function  
  ----- ------------  ---------------      ----- ------------  ---------------
    45      0.151948   6 C  s                64      0.151948   8 C  s         

 Vector   16  Occ=1.000000D+00  E=-6.923119D-01  Symmetry=a1
              MO Center= -1.3D-15, -1.3D-15,  3.2D-01, r^2= 4.3D+00
   Bfn.  Coefficient  Atom+Function         Bfn.  Coefficient  Atom+Function  
  ----- ------------  ---------------      ----- ------------  ---------------
    77      0.172147   9 H  s                96      0.172147  11 H  s         
    87      0.166821  10 C  pz              106      0.166821  12 C  pz        

 Vector   17  Occ=1.000000D+00  E=-6.401065D-01  Symmetry=b2
              MO Center=  2.0D-16, -4.3D-15, -1.9D-01, r^2= 5.3D+00
   Bfn.  Coefficient  Atom+Function         Bfn.  Coefficient  Atom+Function  
  ----- ------------  ---------------      ----- ------------  ---------------
    39      0.198306   5 H  s                58     -0.198306   7 H  s         
    77      0.165693   9 H  s                96     -0.165693  11 H  s         

 Vector   18  Occ=1.000000D+00  E=-6.062442D-01  Symmetry=a1
              MO Center= -5.4D-17,  5.4D-17, -2.3D-01, r^2= 3.8D+00
   Bfn.  Coefficient  Atom+Function         Bfn.  Coefficient  Atom+Function  
  ----- ------------  ---------------      ----- ------------  ---------------
    86      0.226822  10 C  py              105     -0.226822  12 C  py        
    49     -0.204356   6 C  pz               68     -0.204356   8 C  pz        
    39      0.195651   5 H  s                58      0.195651   7 H  s         

 Vector   19  Occ=1.000000D+00  E=-6.031851D-01  Symmetry=b2
              MO Center= -2.1D-16, -1.7D-15, -1.1D-01, r^2= 4.5D+00
   Bfn.  Coefficient  Atom+Function         Bfn.  Coefficient  Atom+Function  
  ----- ------------  ---------------      ----- ------------  ---------------
     9      0.187489   2 C  px               28     -0.187489   4 C  px        
   123     -0.187489  14 C  px              142      0.187489  16 C  px        
     1      0.172219   1 H  s                20     -0.172219   3 H  s         
   115      0.172219  13 H  s               134     -0.172219  15 H  s         
    49     -0.151121   6 C  pz               68      0.151121   8 C  pz        

 Vector   20  Occ=1.000000D+00  E=-5.694441D-01  Symmetry=b1
              MO Center=  4.5D-16,  1.1D-14,  1.4D-01, r^2= 3.1D+00
   Bfn.  Coefficient  Atom+Function         Bfn.  Coefficient  Atom+Function  
  ----- ------------  ---------------      ----- ------------  ---------------
    85      0.211890  10 C  px              104      0.211890  12 C  px        
    11      0.166781   2 C  pz               30      0.166781   4 C  pz        
   125     -0.166781  14 C  pz              144     -0.166781  16 C  pz        

 Vector   21  Occ=1.000000D+00  E=-5.181764D-01  Symmetry=b1
              MO Center=  2.8D-16, -3.6D-17, -2.3D-01, r^2= 3.7D+00
   Bfn.  Coefficient  Atom+Function         Bfn.  Coefficient  Atom+Function  
  ----- ------------  ---------------      ----- ------------  ---------------
    47     -0.191360   6 C  px               66     -0.191360   8 C  px        
     9      0.180225   2 C  px               28      0.180225   4 C  px        
   123      0.180225  14 C  px              142      0.180225  16 C  px        
     1      0.160336   1 H  s                20      0.160336   3 H  s         
   115     -0.160336  13 H  s               134     -0.160336  15 H  s         

 Vector   22  Occ=1.000000D+00  E=-4.942711D-01  Symmetry=a1
              MO Center= -1.8D-15, -7.7D-16,  2.0D-01, r^2= 3.4D+00
   Bfn.  Coefficient  Atom+Function         Bfn.  Coefficient  Atom+Function  
  ----- ------------  ---------------      ----- ------------  ---------------
    87      0.206057  10 C  pz              106      0.206057  12 C  pz        
    10      0.163572   2 C  py               29     -0.163572   4 C  py        
   124      0.163572  14 C  py              143     -0.163572  16 C  py        
    77      0.152888   9 H  s                96      0.152888  11 H  s         

 Vector   23  Occ=1.000000D+00  E=-4.355714D-01  Symmetry=a2
              MO Center=  4.6D-17,  2.7D-16, -3.7D-01, r^2= 3.5D+00
   Bfn.  Coefficient  Atom+Function         Bfn.  Coefficient  Atom+Function  
  ----- ------------  ---------------      ----- ------------  ---------------
    47      0.278019   6 C  px               66     -0.278019   8 C  px        
    11     -0.164964   2 C  pz               30      0.164964   4 C  pz        
   125      0.164964  14 C  pz              144     -0.164964  16 C  pz        
     9     -0.160006   2 C  px               28      0.160006   4 C  px        
   123     -0.160006  14 C  px              142      0.160006  16 C  px        

 Vector   24  Occ=1.000000D+00  E=-4.234831D-01  Symmetry=b1
              MO Center= -6.2D-17, -3.7D-17,  3.2D-02, r^2= 2.9D+00
   Bfn.  Coefficient  Atom+Function         Bfn.  Coefficient  Atom+Function  
  ----- ------------  ---------------      ----- ------------  ---------------
    10      0.250502   2 C  py               29     -0.250502   4 C  py        
   124     -0.250502  14 C  py              143      0.250502  16 C  py        
    85     -0.168935  10 C  px              104     -0.168935  12 C  px        
    13      0.154798   2 C  py               32     -0.154798   4 C  py        
   127     -0.154798  14 C  py              146      0.154798  16 C  py        

 Vector   25  Occ=1.000000D+00  E=-4.052656D-01  Symmetry=b2
              MO Center= -6.8D-15, -2.3D-14,  1.7D-01, r^2= 3.7D+00
   Bfn.  Coefficient  Atom+Function         Bfn.  Coefficient  Atom+Function  
  ----- ------------  ---------------      ----- ------------  ---------------
    87      0.245182  10 C  pz              106     -0.245182  12 C  pz        
    11     -0.194691   2 C  pz               30      0.194691   4 C  pz        
   125     -0.194691  14 C  pz              144      0.194691  16 C  pz        
    77      0.176884   9 H  s                96     -0.176884  11 H  s         
    49      0.169980   6 C  pz               68     -0.169980   8 C  pz        

 Vector   26  Occ=1.000000D+00  E=-4.025447D-01  Symmetry=a1
              MO Center= -1.4D-16,  2.9D-14,  4.8D-01, r^2= 3.0D+00
   Bfn.  Coefficient  Atom+Function         Bfn.  Coefficient  Atom+Function  
  ----- ------------  ---------------      ----- ------------  ---------------
    86      0.315538  10 C  py              105     -0.315538  12 C  py        
    89      0.199780  10 C  py              108     -0.199780  12 C  py        

 Vector   27  Occ=1.000000D+00  E=-3.803647D-01  Symmetry=a2
              MO Center=  6.4D-15,  7.5D-16,  4.5D-01, r^2= 3.0D+00
   Bfn.  Coefficient  Atom+Function         Bfn.  Coefficient  Atom+Function  
  ----- ------------  ---------------      ----- ------------  ---------------
    85      0.294818  10 C  px              104     -0.294818  12 C  px        
    88      0.194892  10 C  px              107     -0.194892  12 C  px        
     9     -0.166527   2 C  px               28      0.166527   4 C  px        
   123     -0.166527  14 C  px              142      0.166527  16 C  px        
    11      0.159429   2 C  pz               30     -0.159429   4 C  pz        

 Vector   28  Occ=0.000000D+00  E= 1.248525D-01  Symmetry=b2
              MO Center= -6.4D-15,  2.3D-13, -5.0D-01, r^2= 4.4D+00
   Bfn.  Coefficient  Atom+Function         Bfn.  Coefficient  Atom+Function  
  ----- ------------  ---------------      ----- ------------  ---------------
    84      0.510161  10 C  s               103     -0.510161  12 C  s         
    51      0.447357   6 C  py               70      0.447357   8 C  py        
    46      0.269031   6 C  s                65     -0.269031   8 C  s         
    48      0.236491   6 C  py               67      0.236491   8 C  py        
    13      0.231996   2 C  py               32      0.231996   4 C  py        

 Vector   29  Occ=0.000000D+00  E= 1.428021D-01  Symmetry=a1
              MO Center= -1.6D-14, -2.3D-14, -8.1D-01, r^2= 4.9D+00
   Bfn.  Coefficient  Atom+Function         Bfn.  Coefficient  Atom+Function  
  ----- ------------  ---------------      ----- ------------  ---------------
    51     -0.443477   6 C  py               70      0.443477   8 C  py        
     8      0.412062   2 C  s                27      0.412062   4 C  s         
   122      0.412062  14 C  s               141      0.412062  16 C  s         
     2     -0.340106   1 H  s                21     -0.340106   3 H  s         
   116     -0.340106  13 H  s               135     -0.340106  15 H  s         

 Vector   30  Occ=0.000000D+00  E= 1.931068D-01  Symmetry=a1
              MO Center= -1.9D-13,  3.7D-14,  9.9D-01, r^2= 8.9D+00
   Bfn.  Coefficient  Atom+Function         Bfn.  Coefficient  Atom+Function  
  ----- ------------  ---------------      ----- ------------  ---------------
    78      0.954474   9 H  s                97      0.954474  11 H  s         
    84     -0.912178  10 C  s               103     -0.912178  12 C  s         
     2      0.676928   1 H  s                21      0.676928   3 H  s         
   116      0.676928  13 H  s               135      0.676928  15 H  s         
     8     -0.373139   2 C  s                27     -0.373139   4 C  s         

 Vector   31  Occ=0.000000D+00  E= 2.106382D-01  Symmetry=b1
              MO Center=  3.7D-13,  3.2D-17,  1.3D-01, r^2= 9.0D+00
   Bfn.  Coefficient  Atom+Function         Bfn.  Coefficient  Atom+Function  
  ----- ------------  ---------------      ----- ------------  ---------------
     8      0.981570   2 C  s                27      0.981570   4 C  s         
   122     -0.981570  14 C  s               141     -0.981570  16 C  s         
     2     -0.891587   1 H  s                21     -0.891587   3 H  s         
   116      0.891587  13 H  s               135      0.891587  15 H  s         
    88     -0.387153  10 C  px              107     -0.387153  12 C  px        

 Vector   32  Occ=0.000000D+00  E= 2.155401D-01  Symmetry=a1
              MO Center=  1.3D-16, -1.6D-14, -1.5D+00, r^2= 6.5D+00
   Bfn.  Coefficient  Atom+Function         Bfn.  Coefficient  Atom+Function  
  ----- ------------  ---------------      ----- ------------  ---------------
    40      1.173211   5 H  s                59      1.173211   7 H  s         
    46     -1.037401   6 C  s                65     -1.037401   8 C  s         
    84      0.694724  10 C  s               103      0.694724  12 C  s         
    52      0.572722   6 C  pz               71      0.572722   8 C  pz        
    14     -0.365622   2 C  pz               33     -0.365622   4 C  pz        

 Vector   33  Occ=0.000000D+00  E= 2.364989D-01  Symmetry=b2
              MO Center= -1.2D-16, -4.0D-15,  1.3D+00, r^2= 9.4D+00
   Bfn.  Coefficient  Atom+Function         Bfn.  Coefficient  Atom+Function  
  ----- ------------  ---------------      ----- ------------  ---------------
    78      1.450597   9 H  s                97     -1.450597  11 H  s         
    90     -0.842142  10 C  pz              109      0.842142  12 C  pz        
    89      0.649648  10 C  py              108      0.649648  12 C  py        
     2      0.634712   1 H  s                21     -0.634712   3 H  s         
   116      0.634712  13 H  s               135     -0.634712  15 H  s         

 Vector   34  Occ=0.000000D+00  E= 2.442652D-01  Symmetry=a1
              MO Center= -1.8D-16, -5.0D-17,  1.3D-01, r^2= 1.0D+01
   Bfn.  Coefficient  Atom+Function         Bfn.  Coefficient  Atom+Function  
  ----- ------------  ---------------      ----- ------------  ---------------
    78      0.988991   9 H  s                97      0.988991  11 H  s         
    40      0.883845   5 H  s                59      0.883845   7 H  s         
    84     -0.783371  10 C  s               103     -0.783371  12 C  s         
     2     -0.698965   1 H  s                21     -0.698965   3 H  s         
   116     -0.698965  13 H  s               135     -0.698965  15 H  s         

 Vector   35  Occ=0.000000D+00  E= 2.577918D-01  Symmetry=a2
              MO Center=  3.3D-15, -1.6D-16,  4.7D-02, r^2= 1.1D+01
   Bfn.  Coefficient  Atom+Function         Bfn.  Coefficient  Atom+Function  
  ----- ------------  ---------------      ----- ------------  ---------------
     2      1.319055   1 H  s                21     -1.319055   3 H  s         
   116     -1.319055  13 H  s               135      1.319055  15 H  s         
    12     -0.851041   2 C  px               31      0.851041   4 C  px        
   126     -0.851041  14 C  px              145      0.851041  16 C  px        
     8     -0.775977   2 C  s                27      0.775977   4 C  s         

 Vector   36  Occ=0.000000D+00  E= 2.643357D-01  Symmetry=b2
              MO Center=  4.8D-17, -1.2D-15,  1.8D-01, r^2= 1.2D+01
   Bfn.  Coefficient  Atom+Function         Bfn.  Coefficient  Atom+Function  
  ----- ------------  ---------------      ----- ------------  ---------------
    46      1.364874   6 C  s                65     -1.364874   8 C  s         
    78      1.325461   9 H  s                97     -1.325461  11 H  s         
    90     -1.176677  10 C  pz              109      1.176677  12 C  pz        
     2     -0.988424   1 H  s                21      0.988424   3 H  s         
   116     -0.988424  13 H  s               135      0.988424  15 H  s         

 Vector   37  Occ=0.000000D+00  E= 2.761952D-01  Symmetry=b1
              MO Center= -1.5D-13, -1.8D-15,  3.8D-01, r^2= 6.5D+00
   Bfn.  Coefficient  Atom+Function         Bfn.  Coefficient  Atom+Function  
  ----- ------------  ---------------      ----- ------------  ---------------
     2      0.820601   1 H  s                21      0.820601   3 H  s         
   116     -0.820601  13 H  s               135     -0.820601  15 H  s         
    12     -0.801665   2 C  px               31     -0.801665   4 C  px        
   126     -0.801665  14 C  px              145     -0.801665  16 C  px        
    88     -0.702852  10 C  px              107     -0.702852  12 C  px        

 Vector   38  Occ=0.000000D+00  E= 2.765031D-01  Symmetry=a1
              MO Center= -1.0D-15, -1.3D-15,  3.2D-01, r^2= 7.3D+00
   Bfn.  Coefficient  Atom+Function         Bfn.  Coefficient  Atom+Function  
  ----- ------------  ---------------      ----- ------------  ---------------
    90     -1.008447  10 C  pz              109     -1.008447  12 C  pz        
    78      0.980889   9 H  s                97      0.980889  11 H  s         
    40     -0.754974   5 H  s                59     -0.754974   7 H  s         
    52     -0.654854   6 C  pz               71     -0.654854   8 C  pz        
    14     -0.474376   2 C  pz               33     -0.474376   4 C  pz        

 Vector   39  Occ=0.000000D+00  E= 2.773795D-01  Symmetry=b2
              MO Center= -7.7D-15,  1.0D-14, -1.7D+00, r^2= 9.1D+00
   Bfn.  Coefficient  Atom+Function         Bfn.  Coefficient  Atom+Function  
[...]
   19 Stretch                 15    16                       1.10145    0.00000
   20 Bend                     1     2     4               115.56360   -0.00024
   21 Bend                     1     2     6               122.06926    0.00005
   22 Bend                     1     2    10               124.88247    0.00220
   23 Bend                     2     4     3               115.56360   -0.00024
   24 Bend                     2     4     8               110.24623   -0.00166
   25 Bend                     2     4    12                88.90147    0.00092
   26 Bend                     2     6     5               131.20601   -0.00112
   27 Bend                     2     6    14                90.65384    0.00220
   28 Bend                     2    10     9               124.24622   -0.00041
   29 Bend                     2    10    12                91.09853   -0.00092
   30 Bend                     2    10    14                85.74027    0.00022
   31 Bend                     3     4     8               122.06926    0.00005
   32 Bend                     3     4    12               124.88247    0.00220
   33 Bend                     4     2     6               110.24623   -0.00166
   34 Bend                     4     2    10                88.90147    0.00092
   35 Bend                     4     8     7               131.20601   -0.00112
   36 Bend                     4     8    16                90.65384    0.00220
   37 Bend                     4    12    10                91.09853   -0.00092
   38 Bend                     4    12    11               124.24622   -0.00041
   39 Bend                     4    12    16                85.74027    0.00022
   40 Bend                     5     6    14               131.20601   -0.00112
   41 Bend                     6     2    10                88.34980   -0.00098
   42 Bend                     6    14    10                88.34980   -0.00098
   43 Bend                     6    14    13               122.06926    0.00005
   44 Bend                     6    14    16               110.24623   -0.00166
   45 Bend                     7     8    16               131.20601   -0.00112
   46 Bend                     8     4    12                88.34980   -0.00098
   47 Bend                     8    16    12                88.34980   -0.00098
   48 Bend                     8    16    14               110.24623   -0.00166
   49 Bend                     8    16    15               122.06926    0.00005
   50 Bend                     9    10    12               128.34043    0.00185
   51 Bend                     9    10    14               124.24622   -0.00041
   52 Bend                    10    12    11               128.34043    0.00185
   53 Bend                    10    12    16                91.09853   -0.00092
   54 Bend                    10    14    13               124.88247    0.00220
   55 Bend                    10    14    16                88.90147    0.00092
   56 Bend                    11    12    16               124.24622   -0.00041
   57 Bend                    12    10    14                91.09853   -0.00092
   58 Bend                    12    16    14                88.90147    0.00092
   59 Bend                    12    16    15               124.88247    0.00220
   60 Bend                    13    14    16               115.56360   -0.00024
   61 Bend                    14    16    15               115.56360   -0.00024
   62 Torsion                  1     2     4     3           0.00000    0.00000
   63 Torsion                  1     2     4     8         143.48993   -0.00238
   64 Torsion                  1     2     4    12        -128.67478   -0.00303
   65 Torsion                  1     2     6     5         -56.46136    0.00147
   66 Torsion                  1     2     6    14         151.20469    0.00158
   67 Torsion                  1     2    10     9         -18.93788   -0.00009
   68 Torsion                  1     2    10    12         120.84744    0.00130
   69 Torsion                  1     2    10    14        -148.13263    0.00045
   70 Torsion                  2     4     8     7         -84.23953    0.00127
   71 Torsion                  2     4     8    16          68.09442    0.00116
   72 Torsion                  2     4    12    10           0.00000    0.00000
   73 Torsion                  2     4    12    11         139.78532    0.00139
   74 Torsion                  2     4    12    16         -91.01993    0.00085
   75 Torsion                  2     6    14    10         -20.12517    0.00048
   76 Torsion                  2     6    14    13        -151.20469   -0.00158
   77 Torsion                  2     6    14    16          68.09442    0.00116
   78 Torsion                  2    10    12     4           0.00000    0.00000
   79 Torsion                  2    10    12    11        -137.12008    0.00009
   80 Torsion                  2    10    12    16          85.75983    0.00019
   81 Torsion                  2    10    14     6          19.27270   -0.00082
   82 Torsion                  2    10    14    13         148.13263   -0.00045
   83 Torsion                  2    10    14    16         -91.01993    0.00085
   84 Torsion                  3     4     2     6        -143.48993    0.00238
   85 Torsion                  3     4     2    10         128.67478    0.00303
   86 Torsion                  3     4     8     7          56.46136   -0.00147
   87 Torsion                  3     4     8    16        -151.20469   -0.00158
   88 Torsion                  3     4    12    10        -120.84744   -0.00130
   89 Torsion                  3     4    12    11          18.93788    0.00009
   90 Torsion                  3     4    12    16         148.13263   -0.00045
   91 Torsion                  4     2     6     5          84.23953   -0.00127
   92 Torsion                  4     2     6    14         -68.09442   -0.00116
   93 Torsion                  4     2    10     9        -139.78532   -0.00139
   94 Torsion                  4     2    10    12           0.00000    0.00000
   95 Torsion                  4     2    10    14          91.01993   -0.00085
   96 Torsion                  4     8    16    12          20.12517   -0.00048
   97 Torsion                  4     8    16    14         -68.09442   -0.00116
   98 Torsion                  4     8    16    15         151.20469    0.00158
   99 Torsion                  4    12    10     9         137.12008   -0.00009
  100 Torsion                  4    12    10    14         -85.75983   -0.00019
  101 Torsion                  4    12    16     8         -19.27270    0.00082
  102 Torsion                  4    12    16    14          91.01993   -0.00085
  103 Torsion                  4    12    16    15        -148.13263    0.00045
  104 Torsion                  5     6     2    10         172.45912   -0.00059
  105 Torsion                  5     6    14    10        -172.45912    0.00059
  106 Torsion                  5     6    14    13          56.46136   -0.00147
  107 Torsion                  5     6    14    16         -84.23953    0.00127
  108 Torsion                  6     2     4     8           0.00000    0.00000
  109 Torsion                  6     2     4    12          87.83529   -0.00065
  110 Torsion                  6     2    10     9         109.92205    0.00027
  111 Torsion                  6     2    10    12        -110.29263    0.00166
  112 Torsion                  6     2    10    14         -19.27270    0.00082
  113 Torsion                  6    14    10     9        -109.92205   -0.00027
  114 Torsion                  6    14    10    12         110.29263   -0.00166
  115 Torsion                  6    14    16     8           0.00000    0.00000
  116 Torsion                  6    14    16    12         -87.83529    0.00065
  117 Torsion                  6    14    16    15         143.48993   -0.00238
  118 Torsion                  7     8     4    12        -172.45912    0.00059
  119 Torsion                  7     8    16    12         172.45912   -0.00059
  120 Torsion                  7     8    16    14          84.23953   -0.00127
  121 Torsion                  7     8    16    15         -56.46136    0.00147
  122 Torsion                  8     4     2    10         -87.83529    0.00065
  123 Torsion                  8     4    12    10         110.29263   -0.00166
  124 Torsion                  8     4    12    11        -109.92205   -0.00027
  125 Torsion                  8     4    12    16          19.27270   -0.00082
  126 Torsion                  8    16    12    10        -110.29263    0.00166
  127 Torsion                  8    16    12    11         109.92205    0.00027
  128 Torsion                  8    16    14    10          87.83529   -0.00065
  129 Torsion                  8    16    14    13        -143.48993    0.00238
  130 Torsion                  9    10    12    11           0.00000    0.00000
  131 Torsion                  9    10    12    16        -137.12008    0.00009
  132 Torsion                  9    10    14    13          18.93788    0.00009
  133 Torsion                  9    10    14    16         139.78532    0.00139
  134 Torsion                 10     2     4    12           0.00000    0.00000
  135 Torsion                 10     2     6    14          20.12517   -0.00048
  136 Torsion                 10    12    16    14           0.00000    0.00000
  137 Torsion                 10    12    16    15         120.84744    0.00130
  138 Torsion                 10    14    16    12           0.00000    0.00000
  139 Torsion                 10    14    16    15        -128.67478   -0.00303
  140 Torsion                 11    12    10    14         137.12008   -0.00009
  141 Torsion                 11    12    16    14        -139.78532   -0.00139
  142 Torsion                 11    12    16    15         -18.93788   -0.00009
  143 Torsion                 12     4     8    16         -20.12517    0.00048
  144 Torsion                 12    10    14    13        -120.84744   -0.00130
  145 Torsion                 12    10    14    16          -0.00000    0.00000
  146 Torsion                 12    16    14    13         128.67478    0.00303
  147 Torsion                 13    14    16    15           0.00000    0.00000
  148 Torsion                 14    10    12    16           0.00000    0.00000

 ==============================================================================
                                internuclear distances
 ------------------------------------------------------------------------------
       center one      |      center two      | atomic units |  angstroms
 ------------------------------------------------------------------------------
    2 C                |   1 H                |     2.08143  |     1.10145
    4 C                |   2 C                |     3.05215  |     1.61513
    4 C                |   3 H                |     2.08143  |     1.10145
    6 C                |   2 C                |     2.85573  |     1.51119
    6 C                |   5 H                |     2.07409  |     1.09756
    8 C                |   4 C                |     2.85573  |     1.51119
    8 C                |   7 H                |     2.07409  |     1.09756
   10 C                |   2 C                |     2.98498  |     1.57958
   10 C                |   9 H                |     2.07805  |     1.09966
   12 C                |   4 C                |     2.98498  |     1.57958
   12 C                |  10 C                |     2.93769  |     1.55456
   12 C                |  11 H                |     2.07805  |     1.09966
   14 C                |   6 C                |     2.85573  |     1.51119
   14 C                |  10 C                |     2.98498  |     1.57958
   14 C                |  13 H                |     2.08143  |     1.10145
   16 C                |   8 C                |     2.85573  |     1.51119
   16 C                |  12 C                |     2.98498  |     1.57958
   16 C                |  14 C                |     3.05215  |     1.61513
   16 C                |  15 H                |     2.08143  |     1.10145
 ------------------------------------------------------------------------------
                         number of included internuclear distances:         19
 ==============================================================================



 ==============================================================================
                                 internuclear angles
 ------------------------------------------------------------------------------
        center 1       |       center 2       |       center 3       |  degrees
 ------------------------------------------------------------------------------
    1 H                |   2 C                |   4 C                |   115.56
    1 H                |   2 C                |   6 C                |   122.07
    1 H                |   2 C                |  10 C                |   124.88
    4 C                |   2 C                |   6 C                |   110.25
    4 C                |   2 C                |  10 C                |    88.90
    6 C                |   2 C                |  10 C                |    88.35
    2 C                |   4 C                |   3 H                |   115.56
    2 C                |   4 C                |   8 C                |   110.25
    2 C                |   4 C                |  12 C                |    88.90
    3 H                |   4 C                |   8 C                |   122.07
    3 H                |   4 C                |  12 C                |   124.88
    8 C                |   4 C                |  12 C                |    88.35
    2 C                |   6 C                |   5 H                |   131.21
    2 C                |   6 C                |  14 C                |    90.65
    5 H                |   6 C                |  14 C                |   131.21
    4 C                |   8 C                |   7 H                |   131.21
    4 C                |   8 C                |  16 C                |    90.65
    7 H                |   8 C                |  16 C                |   131.21
    2 C                |  10 C                |   9 H                |   124.25
    2 C                |  10 C                |  12 C                |    91.10
    2 C                |  10 C                |  14 C                |    85.74
    9 H                |  10 C                |  12 C                |   128.34
    9 H                |  10 C                |  14 C                |   124.25
   12 C                |  10 C                |  14 C                |    91.10
    4 C                |  12 C                |  10 C                |    91.10
    4 C                |  12 C                |  11 H                |   124.25
    4 C                |  12 C                |  16 C                |    85.74
   10 C                |  12 C                |  11 H                |   128.34
   10 C                |  12 C                |  16 C                |    91.10
   11 H                |  12 C                |  16 C                |   124.25
    6 C                |  14 C                |  10 C                |    88.35
    6 C                |  14 C                |  13 H                |   122.07
    6 C                |  14 C                |  16 C                |   110.25
   10 C                |  14 C                |  13 H                |   124.88
   10 C                |  14 C                |  16 C                |    88.90
   13 H                |  14 C                |  16 C                |   115.56
    8 C                |  16 C                |  12 C                |    88.35
    8 C                |  16 C                |  14 C                |   110.25
    8 C                |  16 C                |  15 H                |   122.07
   12 C                |  16 C                |  14 C                |    88.90
   12 C                |  16 C                |  15 H                |   124.88
   14 C                |  16 C                |  15 H                |   115.56
 ------------------------------------------------------------------------------
                            number of included internuclear angles:         42
 ==============================================================================




 Task  times  cpu:      481.9s     wall:      396.7s
 Summary of allocated global arrays
-----------------------------------
  No active global arrays



                         GA Statistics for process    0
                         ------------------------------

       create   destroy   get      put      acc     scatter   gather  read&inc
calls: 3239     3239     4.14e+06 6.27e+05 2.24e+06  480        0     7.68e+04 
number of processes/call 1.00e+00 1.00e+00 1.00e+00 0.00e+00 0.00e+00
bytes total:             1.05e+09 4.28e+09 4.02e+08 2.85e+04 0.00e+00 6.14e+05
bytes remote:            0.00e+00 0.00e+00 0.00e+00 0.00e+00 0.00e+00 0.00e+00
Max memory consumed for GA by this process: 209711672 bytes
MA_summarize_allocated_blocks: starting scan ...
MA_summarize_allocated_blocks: scan completed: 0 heap blocks, 0 stack blocks
MA usage statistics:

	allocation statistics:
					      heap	     stack
					      ----	     -----
	current number of blocks	         0	         0
	maximum number of blocks	        25	        48
	current total bytes		         0	         0
	maximum total bytes		     80136	  26347880
	maximum total K-bytes		        81	     26348
	maximum total M-bytes		         1	        27


                                NWChem Input Module
                                -------------------





                                     CITATION
                                     --------
                Please cite the following reference when publishing
                           results obtained with NWChem:

                 M. Valiev, E.J. Bylaska, N. Govind, K. Kowalski,
              T.P. Straatsma, H.J.J. van Dam, D. Wang, J. Nieplocha,
                        E. Apra, T.L. Windus, W.A. de Jong
                 "NWChem: a comprehensive and scalable open-source
                  solution for large scale molecular simulations"
                      Comput. Phys. Commun. 181, 1477 (2010)
                           doi:10.1016/j.cpc.2010.04.018

                                      AUTHORS
                                      -------
          E. Apra, E. J. Bylaska, W. A. de Jong, N. Govind, K. Kowalski,
       T. P. Straatsma, M. Valiev, H. J. J. van Dam, D. Wang, T. L. Windus,
        J. Hammond, J. Autschbach, K. Bhaskaran-Nair, J. Brabec, K. Lopata,
    S. A. Fischer, S. Krishnamoorthy, M. Jacquelin, W. Ma, M. Klemm, O. Villa,
      Y. Chen, V. Anisimov, F. Aquino, S. Hirata, M. T. Hackler, V. Konjkov,
            D. Mejia-Rodriguez, T. Risthaus, M. Malagoli, A. Marenich,
   A. Otero-de-la-Roza, J. Mullin, P. Nichols, R. Peverati, J. Pittner, Y. Zhao,
        P.-D. Fan, A. Fonari, M. J. Williamson, R. J. Harrison, J. R. Rehr,
      M. Dupuis, D. Silverstein, D. M. A. Smith, J. Nieplocha, V. Tipparaju,
    M. Krishnan, B. E. Van Kuiken, A. Vazquez-Mayagoitia, L. Jensen, M. Swart,
      Q. Wu, T. Van Voorhis, A. A. Auer, M. Nooijen, L. D. Crosby, E. Brown,
      G. Cisneros, G. I. Fann, H. Fruchtl, J. Garza, K. Hirao, R. A. Kendall,
      J. A. Nichols, K. Tsemekhman, K. Wolinski, J. Anchell, D. E. Bernholdt,
      P. Borowski, T. Clark, D. Clerc, H. Dachsel, M. J. O. Deegan, K. Dyall,
    D. Elwood, E. Glendening, M. Gutowski, A. C. Hess, J. Jaffe, B. G. Johnson,
     J. Ju, R. Kobayashi, R. Kutteh, Z. Lin, R. Littlefield, X. Long, B. Meng,
      T. Nakajima, S. Niu, L. Pollack, M. Rosing, K. Glaesemann, G. Sandrone,
      M. Stave, H. Taylor, G. Thomas, J. H. van Lenthe, A. T. Wong, Z. Zhang.

 Total times  cpu:      482.1s     wall:      396.8s
