 argument  1 = triplet.nw
                                         
                                         


              Northwest Computational Chemistry Package (NWChem) 6.5
              ------------------------------------------------------


                    Environmental Molecular Sciences Laboratory
                       Pacific Northwest National Laboratory
                                Richland, WA 99352

                              Copyright (c) 1994-2013
                       Pacific Northwest National Laboratory
                            Battelle Memorial Institute

             NWChem is an open-source computational chemistry package
                        distributed under the terms of the
                      Educational Community License (ECL) 2.0
             A copy of the license is included with this distribution
                              in the LICENSE.TXT file

                                  ACKNOWLEDGMENT
                                  --------------

            This software and its documentation were developed at the
            EMSL at Pacific Northwest National Laboratory, a multiprogram
            national laboratory, operated for the U.S. Department of Energy
            by Battelle under Contract Number DE-AC05-76RL01830. Support
            for this work was provided by the Department of Energy Office
            of Biological and Environmental Research, Office of Basic
            Energy Sciences, and the Office of Advanced Scientific Computing.


           Job information
           ---------------

    hostname        = kbob-G41MT-S2
    program         = nwchem
    date            = Thu Apr 23 21:49:01 2015

    compiled        = Сб._марта_14_15:53:40_2015
    source          = /opt/Nwchem-dev.revision26871-src.2015-02-24
    nwchem branch   = Development
    nwchem revision = 26871
    ga revision     = 10520
    input           = triplet.nw
    prefix          = triplet.
    data base       = ./triplet.db
    status          = startup
    nproc           =        1
    time left       =     -1s



           Memory information
           ------------------

    heap     =   63211008 doubles =    482.3 Mbytes
    stack    =   63211005 doubles =    482.3 Mbytes
    global   =  126422016 doubles =    964.5 Mbytes (distinct from heap & stack)
    total    =  252844029 doubles =   1929.0 Mbytes
    verify   = yes
    hardfail = no 


           Directory information
           ---------------------

  0 permanent = .
  0 scratch   = .




                                NWChem Input Module
                                -------------------


               cubane T-biradical MP2/cc-pVDZ geometry optimization
               ----------------------------------------------------

 Scaling coordinates for geometry "geometry" by  1.889725989
 (inverse scale =  0.529177249)

 Turning off AUTOSYM since
 SYMMETRY directive was detected!


          ------
          auto-z
          ------


                             Geometry "geometry" -> ""
                             -------------------------

 Output coordinates in angstroms (scale by  1.889725989 to convert to a.u.)

  No.       Tag          Charge          X              Y              Z
 ---- ---------------- ---------- -------------- -------------- --------------
    1 H                    1.0000     2.05734129    -1.32981120     0.02496975
    2 C                    6.0000     1.09520984    -0.79607173    -0.03872781
    3 H                    1.0000     2.05734129     1.32981120     0.02496975
    4 C                    6.0000     1.09520984     0.79607173    -0.03872781
    5 H                    1.0000     0.00000000    -1.59258557    -2.05035613
    6 C                    6.0000     0.00000000    -1.20794408    -1.02589690
    7 H                    1.0000     0.00000000     1.59258557    -2.05035613
    8 C                    6.0000     0.00000000     1.20794408    -1.02589690
    9 H                    1.0000     0.00000000    -1.45028854     1.97989593
   10 C                    6.0000     0.00000000    -0.78106969     1.10677262
   11 H                    1.0000     0.00000000     1.45028854     1.97989593
   12 C                    6.0000     0.00000000     0.78106969     1.10677262
   13 H                    1.0000    -2.05734129    -1.32981120     0.02496975
   14 C                    6.0000    -1.09520984    -0.79607173    -0.03872781
   15 H                    1.0000    -2.05734129     1.32981120     0.02496975
   16 C                    6.0000    -1.09520984     0.79607173    -0.03872781

      Atomic Mass 
      ----------- 

      H                  1.007825
      C                 12.000000


 Effective nuclear repulsion energy (a.u.)     357.6009661586

            Nuclear Dipole moment (a.u.) 
            ----------------------------
        X                 Y               Z
 ---------------- ---------------- ----------------
     0.0000000000    -0.0000000000    -0.0000000000

      Symmetry information
      --------------------

 Group name             C2v       
 Group number             16
 Group order               4
 No. of unique centers     6

      Symmetry unique atoms

     1    2    5    6    9   10



                                Z-matrix (autoz)
                                -------- 

 Units are Angstrom for bonds and degrees for angles

      Type          Name      I     J     K     L     M      Value
      ----------- --------  ----- ----- ----- ----- ----- ----------
    1 Stretch                  1     2                       1.10210
    2 Stretch                  2     4                       1.59214
    3 Stretch                  2     6                       1.53089
    4 Stretch                  2    10                       1.58489
    5 Stretch                  3     4                       1.10210
    6 Stretch                  4     8                       1.53089
    7 Stretch                  4    12                       1.58489
    8 Stretch                  5     6                       1.09429
    9 Stretch                  6    14                       1.53089
   10 Stretch                  7     8                       1.09429
   11 Stretch                  8    16                       1.53089
   12 Stretch                  9    10                       1.10009
   13 Stretch                 10    12                       1.56214
   14 Stretch                 10    14                       1.58489
   15 Stretch                 11    12                       1.10009
   16 Stretch                 12    16                       1.58489
   17 Stretch                 13    14                       1.10210
   18 Stretch                 14    16                       1.59214
   19 Stretch                 15    16                       1.10210
   20 Bend                     1     2     4               118.96607
   21 Bend                     1     2     6               122.10833
   22 Bend                     1     2    10               124.47722
   23 Bend                     2     4     3               118.96607
   24 Bend                     2     4     8               105.60721
   25 Bend                     2     4    12                89.45765
   26 Bend                     2     6     5               134.28700
   27 Bend                     2     6    14                91.35312
   28 Bend                     2    10     9               124.60298
   29 Bend                     2    10    12                90.54235
   30 Bend                     2    10    14                87.42363
   31 Bend                     3     4     8               122.10833
   32 Bend                     3     4    12               124.47722
   33 Bend                     4     2     6               105.60721
   34 Bend                     4     2    10                89.45765
   35 Bend                     4     8     7               134.28700
   36 Bend                     4     8    16                91.35312
   37 Bend                     4    12    10                90.54235
   38 Bend                     4    12    11               124.60298
   39 Bend                     4    12    16                87.42363
   40 Bend                     5     6    14               134.28700
   41 Bend                     6     2    10                88.52386
   42 Bend                     6    14    10                88.52386
   43 Bend                     6    14    13               122.10833
   44 Bend                     6    14    16               105.60721
   45 Bend                     7     8    16               134.28700
   46 Bend                     8     4    12                88.52386
   47 Bend                     8    16    12                88.52386
   48 Bend                     8    16    14               105.60721
   49 Bend                     8    16    15               122.10833
   50 Bend                     9    10    12               127.46892
   51 Bend                     9    10    14               124.60298
   52 Bend                    10    12    11               127.46892
   53 Bend                    10    12    16                90.54235
   54 Bend                    10    14    13               124.47722
   55 Bend                    10    14    16                89.45765
   56 Bend                    11    12    16               124.60298
   57 Bend                    12    10    14                90.54235
   58 Bend                    12    16    14                89.45765
   59 Bend                    12    16    15               124.47722
   60 Bend                    13    14    16               118.96607
   61 Bend                    14    16    15               118.96607
   62 Torsion                  1     2     4     3           0.00000
   63 Torsion                  1     2     4     8         141.75775
   64 Torsion                  1     2     4    12        -129.92655
   65 Torsion                  1     2     6     5         -36.52674
   66 Torsion                  1     2     6    14         146.36287
   67 Torsion                  1     2    10     9         -12.69184
   68 Torsion                  1     2    10    12         125.52147
   69 Torsion                  1     2    10    14        -143.96001
   70 Torsion                  2     4     8     7        -103.73003
   71 Torsion                  2     4     8    16          73.38036
   72 Torsion                  2     4    12    10           0.00000
   73 Torsion                  2     4    12    11         138.21332
   74 Torsion                  2     4    12    16         -90.51852
   75 Torsion                  2     6    14    10         -15.64386
   76 Torsion                  2     6    14    13        -146.36287
   77 Torsion                  2     6    14    16          73.38036
   78 Torsion                  2    10    12     4           0.00000
   79 Torsion                  2    10    12    11        -136.28573
   80 Torsion                  2    10    12    16          87.42853
   81 Torsion                  2    10    14     6          15.10923
   82 Torsion                  2    10    14    13         143.96001
   83 Torsion                  2    10    14    16         -90.51852
   84 Torsion                  3     4     2     6        -141.75775
   85 Torsion                  3     4     2    10         129.92655
   86 Torsion                  3     4     8     7          36.52674
   87 Torsion                  3     4     8    16        -146.36287
   88 Torsion                  3     4    12    10        -125.52147
   89 Torsion                  3     4    12    11          12.69184
   90 Torsion                  3     4    12    16         143.96001
   91 Torsion                  4     2     6     5         103.73003
   92 Torsion                  4     2     6    14         -73.38036
   93 Torsion                  4     2    10     9        -138.21332
   94 Torsion                  4     2    10    12           0.00000
   95 Torsion                  4     2    10    14          90.51852
   96 Torsion                  4     8    16    12          15.64386
   97 Torsion                  4     8    16    14         -73.38036
   98 Torsion                  4     8    16    15         146.36287
   99 Torsion                  4    12    10     9         136.28573
  100 Torsion                  4    12    10    14         -87.42853
  101 Torsion                  4    12    16     8         -15.10923
  102 Torsion                  4    12    16    14          90.51852
  103 Torsion                  4    12    16    15        -143.96001
  104 Torsion                  5     6     2    10        -167.24575
  105 Torsion                  5     6    14    10         167.24575
  106 Torsion                  5     6    14    13          36.52674
  107 Torsion                  5     6    14    16        -103.73003
  108 Torsion                  6     2     4     8           0.00000
  109 Torsion                  6     2     4    12          88.31570
  110 Torsion                  6     2    10     9         116.15893
  111 Torsion                  6     2    10    12        -105.62775
  112 Torsion                  6     2    10    14         -15.10923
  113 Torsion                  6    14    10     9        -116.15893
  114 Torsion                  6    14    10    12         105.62775
  115 Torsion                  6    14    16     8           0.00000
  116 Torsion                  6    14    16    12         -88.31570
  117 Torsion                  6    14    16    15         141.75775
  118 Torsion                  7     8     4    12         167.24575
  119 Torsion                  7     8    16    12        -167.24575
  120 Torsion                  7     8    16    14         103.73003
  121 Torsion                  7     8    16    15         -36.52674
  122 Torsion                  8     4     2    10         -88.31570
  123 Torsion                  8     4    12    10         105.62775
  124 Torsion                  8     4    12    11        -116.15893
  125 Torsion                  8     4    12    16          15.10923
  126 Torsion                  8    16    12    10        -105.62775
  127 Torsion                  8    16    12    11         116.15893
  128 Torsion                  8    16    14    10          88.31570
  129 Torsion                  8    16    14    13        -141.75775
  130 Torsion                  9    10    12    11           0.00000
  131 Torsion                  9    10    12    16        -136.28573
  132 Torsion                  9    10    14    13          12.69184
  133 Torsion                  9    10    14    16         138.21332
  134 Torsion                 10     2     4    12           0.00000
  135 Torsion                 10     2     6    14          15.64386
  136 Torsion                 10    12    16    14           0.00000
  137 Torsion                 10    12    16    15         125.52147
  138 Torsion                 10    14    16    12           0.00000
  139 Torsion                 10    14    16    15        -129.92655
  140 Torsion                 11    12    10    14         136.28573
  141 Torsion                 11    12    16    14        -138.21332
  142 Torsion                 11    12    16    15         -12.69184
  143 Torsion                 12     4     8    16         -15.64386
  144 Torsion                 12    10    14    13        -125.52147
  145 Torsion                 12    10    14    16          -0.00000
  146 Torsion                 12    16    14    13         129.92655
  147 Torsion                 13    14    16    15           0.00000
  148 Torsion                 14    10    12    16           0.00000


            XYZ format geometry
            -------------------
    16
 geometry
 H                     2.05734129    -1.32981120     0.02496975
 C                     1.09520984    -0.79607173    -0.03872781
 H                     2.05734129     1.32981120     0.02496975
 C                     1.09520984     0.79607173    -0.03872781
 H                     0.00000000    -1.59258557    -2.05035613
 C                     0.00000000    -1.20794408    -1.02589690
 H                     0.00000000     1.59258557    -2.05035613
 C                     0.00000000     1.20794408    -1.02589690
 H                     0.00000000    -1.45028854     1.97989593
 C                     0.00000000    -0.78106969     1.10677262
 H                     0.00000000     1.45028854     1.97989593
 C                     0.00000000     0.78106969     1.10677262
 H                    -2.05734129    -1.32981120     0.02496975
 C                    -1.09520984    -0.79607173    -0.03872781
 H                    -2.05734129     1.32981120     0.02496975
 C                    -1.09520984     0.79607173    -0.03872781

 ==============================================================================
                                internuclear distances
 ------------------------------------------------------------------------------
       center one      |      center two      | atomic units |  angstroms
 ------------------------------------------------------------------------------
    2 C                |   1 H                |     2.08267  |     1.10210
    4 C                |   2 C                |     3.00871  |     1.59214
    4 C                |   3 H                |     2.08267  |     1.10210
    6 C                |   2 C                |     2.89296  |     1.53089
    6 C                |   5 H                |     2.06790  |     1.09429
    8 C                |   4 C                |     2.89296  |     1.53089
    8 C                |   7 H                |     2.06790  |     1.09429
   10 C                |   2 C                |     2.99501  |     1.58489
   10 C                |   9 H                |     2.07887  |     1.10009
   12 C                |   4 C                |     2.99501  |     1.58489
   12 C                |  10 C                |     2.95202  |     1.56214
   12 C                |  11 H                |     2.07887  |     1.10009
   14 C                |   6 C                |     2.89296  |     1.53089
   14 C                |  10 C                |     2.99501  |     1.58489
   14 C                |  13 H                |     2.08267  |     1.10210
   16 C                |   8 C                |     2.89296  |     1.53089
   16 C                |  12 C                |     2.99501  |     1.58489
   16 C                |  14 C                |     3.00871  |     1.59214
   16 C                |  15 H                |     2.08267  |     1.10210
 ------------------------------------------------------------------------------
                         number of included internuclear distances:         19
 ==============================================================================



 ==============================================================================
                                 internuclear angles
 ------------------------------------------------------------------------------
        center 1       |       center 2       |       center 3       |  degrees
 ------------------------------------------------------------------------------
    1 H                |   2 C                |   4 C                |   118.97
    1 H                |   2 C                |   6 C                |   122.11
    1 H                |   2 C                |  10 C                |   124.48
    4 C                |   2 C                |   6 C                |   105.61
    4 C                |   2 C                |  10 C                |    89.46
    6 C                |   2 C                |  10 C                |    88.52
    2 C                |   4 C                |   3 H                |   118.97
    2 C                |   4 C                |   8 C                |   105.61
    2 C                |   4 C                |  12 C                |    89.46
    3 H                |   4 C                |   8 C                |   122.11
    3 H                |   4 C                |  12 C                |   124.48
    8 C                |   4 C                |  12 C                |    88.52
    2 C                |   6 C                |   5 H                |   134.29
    2 C                |   6 C                |  14 C                |    91.35
    5 H                |   6 C                |  14 C                |   134.29
    4 C                |   8 C                |   7 H                |   134.29
    4 C                |   8 C                |  16 C                |    91.35
    7 H                |   8 C                |  16 C                |   134.29
    2 C                |  10 C                |   9 H                |   124.60
    2 C                |  10 C                |  12 C                |    90.54
    2 C                |  10 C                |  14 C                |    87.42
    9 H                |  10 C                |  12 C                |   127.47
    9 H                |  10 C                |  14 C                |   124.60
   12 C                |  10 C                |  14 C                |    90.54
    4 C                |  12 C                |  10 C                |    90.54
    4 C                |  12 C                |  11 H                |   124.60
    4 C                |  12 C                |  16 C                |    87.42
   10 C                |  12 C                |  11 H                |   127.47
   10 C                |  12 C                |  16 C                |    90.54
   11 H                |  12 C                |  16 C                |   124.60
    6 C                |  14 C                |  10 C                |    88.52
    6 C                |  14 C                |  13 H                |   122.11
    6 C                |  14 C                |  16 C                |   105.61
   10 C                |  14 C                |  13 H                |   124.48
   10 C                |  14 C                |  16 C                |    89.46
   13 H                |  14 C                |  16 C                |   118.97
    8 C                |  16 C                |  12 C                |    88.52
    8 C                |  16 C                |  14 C                |   105.61
    8 C                |  16 C                |  15 H                |   122.11
   12 C                |  16 C                |  14 C                |    89.46
   12 C                |  16 C                |  15 H                |   124.48
   14 C                |  16 C                |  15 H                |   118.97
 ------------------------------------------------------------------------------
                            number of included internuclear angles:         42
 ==============================================================================



  library name resolved from: environment
  library file name is: </opt/Nwchem-dev.revision26871-src.2015-02-24/src/basis/libraries/>
  
                      Basis "ao basis" -> "" (spherical)
                      -----
  H (Hydrogen)
  ------------
            Exponent  Coefficients 
       -------------- ---------------------------------------------------------
  1 S  1.30100000E+01  0.019685
  1 S  1.96200000E+00  0.137977
  1 S  4.44600000E-01  0.478148

  2 S  1.22000000E-01  1.000000

  3 P  7.27000000E-01  1.000000

  C (Carbon)
  ----------
            Exponent  Coefficients 
       -------------- ---------------------------------------------------------
  1 S  6.66500000E+03  0.000692
  1 S  1.00000000E+03  0.005329
  1 S  2.28000000E+02  0.027077
  1 S  6.47100000E+01  0.101718
  1 S  2.10600000E+01  0.274740
  1 S  7.49500000E+00  0.448564
  1 S  2.79700000E+00  0.285074
  1 S  5.21500000E-01  0.015204

  2 S  6.66500000E+03 -0.000146
  2 S  1.00000000E+03 -0.001154
  2 S  2.28000000E+02 -0.005725
  2 S  6.47100000E+01 -0.023312
  2 S  2.10600000E+01 -0.063955
  2 S  7.49500000E+00 -0.149981
  2 S  2.79700000E+00 -0.127262
  2 S  5.21500000E-01  0.544529

  3 S  1.59600000E-01  1.000000

  4 P  9.43900000E+00  0.038109
  4 P  2.00200000E+00  0.209480
  4 P  5.45600000E-01  0.508557

  5 P  1.51700000E-01  1.000000

  6 D  5.50000000E-01  1.000000



 Summary of "ao basis" -> "" (spherical)
 ------------------------------------------------------------------------------
       Tag                 Description            Shells   Functions and Types
 ---------------- ------------------------------  ------  ---------------------
 H                          cc-pVDZ                  3        5   2s1p
 C                          cc-pVDZ                  6       14   3s2p1d




                           NWChem Geometry Optimization
                           ----------------------------




               cubane T-biradical MP2/cc-pVDZ geometry optimization


 maximum gradient threshold         (gmax) =   0.000450
 rms gradient threshold             (grms) =   0.000300
 maximum cartesian step threshold   (xmax) =   0.001800
 rms cartesian step threshold       (xrms) =   0.001200
 fixed trust radius                (trust) =   0.300000
 maximum step size to saddle      (sadstp) =   0.100000
 energy precision                  (eprec) =   1.0D-07
 maximum number of steps          (nptopt) =   20
 initial hessian option           (inhess) =    0
 line search option               (linopt) =    1
 hessian update option            (modupd) =    1
 saddle point option              (modsad) =    0
 initial eigen-mode to follow     (moddir) =    0
 initial variable to follow       (vardir) =    0
 follow first negative mode     (firstneg) =    T
 apply conjugacy                    (opcg) =    F
 source of zmatrix                         =   autoz   


          -------------------
          Energy Minimization
          -------------------


 Names of Z-matrix variables 
    1              2              3              4              5         
    6              7              8              9             10         
   11             12             13             14             15         
   16             17             18             19             20         
   21             22             23             24             25         
   26             27             28             29             30         
   31             32             33             34             35         
   36             37             38             39             40         
   41             42             43             44             45         
   46             47             48             49             50         
   51             52             53             54             55         
   56             57             58             59             60         
   61             62             63             64             65         
   66             67             68             69             70         
   71             72             73             74             75         
   76             77             78             79             80         
   81             82             83             84             85         
   86             87             88             89             90         
   91             92             93             94             95         
   96             97             98             99            100         
  101            102            103            104            105         
  106            107            108            109            110         
  111            112            113            114            115         
  116            117            118            119            120         
  121            122            123            124            125         
  126            127            128            129            130         
  131            132            133            134            135         
  136            137            138            139            140         
  141            142            143            144            145         
  146            147            148         

 Variables with the same non-blank name are constrained to be equal


 Using diagonal initial Hessian 
 Scaling for Hessian diagonals: bonds = 1.00  angles = 0.25  torsions = 0.10

          --------
          Step   0
          --------


                         Geometry "geometry" -> "geometry"
                         ---------------------------------

 Output coordinates in angstroms (scale by  1.889725989 to convert to a.u.)

  No.       Tag          Charge          X              Y              Z
 ---- ---------------- ---------- -------------- -------------- --------------
    1 H                    1.0000     2.05734129    -1.32981120     0.02496975
    2 C                    6.0000     1.09520984    -0.79607173    -0.03872781
    3 H                    1.0000     2.05734129     1.32981120     0.02496975
    4 C                    6.0000     1.09520984     0.79607173    -0.03872781
    5 H                    1.0000     0.00000000    -1.59258557    -2.05035613
    6 C                    6.0000     0.00000000    -1.20794408    -1.02589690
    7 H                    1.0000     0.00000000     1.59258557    -2.05035613
    8 C                    6.0000     0.00000000     1.20794408    -1.02589690
    9 H                    1.0000     0.00000000    -1.45028854     1.97989593
   10 C                    6.0000     0.00000000    -0.78106969     1.10677262
   11 H                    1.0000     0.00000000     1.45028854     1.97989593
   12 C                    6.0000     0.00000000     0.78106969     1.10677262
   13 H                    1.0000    -2.05734129    -1.32981120     0.02496975
   14 C                    6.0000    -1.09520984    -0.79607173    -0.03872781
   15 H                    1.0000    -2.05734129     1.32981120     0.02496975
   16 C                    6.0000    -1.09520984     0.79607173    -0.03872781

      Atomic Mass 
      ----------- 

      H                  1.007825
      C                 12.000000


 Effective nuclear repulsion energy (a.u.)     357.6009661586

            Nuclear Dipole moment (a.u.) 
            ----------------------------
        X                 Y               Z
 ---------------- ---------------- ----------------
     0.0000000000    -0.0000000000    -0.0000000000

      Symmetry information
      --------------------

 Group name             C2v       
 Group number             16
 Group order               4
 No. of unique centers     6

      Symmetry unique atoms

     1    2    5    6    9   10

                                 NWChem SCF Module
                                 -----------------


               cubane T-biradical MP2/cc-pVDZ geometry optimization



  ao basis        = "ao basis"
  functions       =   152
  atoms           =    16
  alpha electrons =    29
  beta  electrons =    27
  charge          =   0.00
  wavefunction    = UHF 
  input vectors   = atomic
  output vectors  = ./triplet.movecs
  use symmetry    = T
  symmetry adapt  = T


 Summary of "ao basis" -> "ao basis" (spherical)
 ------------------------------------------------------------------------------
       Tag                 Description            Shells   Functions and Types
 ---------------- ------------------------------  ------  ---------------------
 H                          cc-pVDZ                  3        5   2s1p
 C                          cc-pVDZ                  6       14   3s2p1d


      Symmetry analysis of basis
      --------------------------

        a1         47
        a2         29
        b1         29
        b2         47


 Forming initial guess at       1.0s


      Superposition of Atomic Density Guess
      -------------------------------------

 Sum of atomic energies:        -305.32340088

      Non-variational initial energy
      ------------------------------

 Total energy =    -311.101872
 1-e energy   =   -1118.625012
 2-e energy   =     449.922174
 HOMO         =      -0.131060
 LUMO         =      -0.114930


   Symmetry analysis of molecular orbitals - initial alpha
   -------------------------------------------------------

  Numbering of irreducible representations: 

     1 a1          2 a2          3 b1          4 b2      

  Orbital symmetries:

     1 a1          2 b1          3 b2          4 a2          5 a1      
     6 b2          7 a1          8 b2          9 a1         10 b2      
    11 b1         12 a1         13 b2         14 a2         15 a1      
    16 a1         17 b2         18 a1         19 b2         20 b1      
    21 a1         22 b1         23 b1         24 a2         25 a1      
    26 b2         27 a2         28 a1         29 b2         30 a1      
    31 b1         32 a1         33 b2         34 a1         35 a2      
    36 b2         37 b1         38 b2         39 a1      


   Symmetry analysis of molecular orbitals - initial beta
   ------------------------------------------------------

  Numbering of irreducible representations: 

     1 a1          2 a2          3 b1          4 b2      

  Orbital symmetries:

     1 a1          2 b1          3 b2          4 a2          5 a1      
     6 b2          7 a1          8 b2          9 a1         10 b2      
    11 b1         12 a1         13 b2         14 a2         15 a1      
    16 a1         17 b2         18 a1         19 b2         20 b1      
    21 a1         22 b1         23 b1         24 a2         25 a1      
    26 b2         27 a2         28 a1         29 b2         30 a1      
    31 b1         32 a1         33 b2         34 a1         35 a2      
    36 b2         37 b1         38 b2         39 a1      


 Starting SCF solution at       5.1s



 ----------------------------------------------
         Quadratically convergent UHF

 Convergence threshold     :          1.000E-06
 Maximum no. of iterations :           30
 Integral*density screening:          1.000E-08
 ----------------------------------------------


              iter       energy          gnorm     gmax       time
             ----- ------------------- --------- --------- --------
                 1     -307.2475815560  6.80D-01  1.12D-01     15.0
                 2     -307.3644585723  1.59D-01  2.86D-02     38.2
                 3     -307.3711441754  1.41D-02  2.67D-03     82.8
                 4     -307.3712292862  1.67D-04  3.43D-05    163.5
                 5     -307.3712293031  8.58D-08  1.11D-08    283.8


       Final UHF  results 
       ------------------ 

         Total SCF energy =   -307.371229303118
      One electron energy =  -1124.222064965295
      Two electron energy =    459.249869503624
 Nuclear repulsion energy =    357.600966158554

                       Sz =      1.0000
                 Sz(Sz+1) =      2.0000
                      S^2 =      2.0293

        Time for solution =    280.5s



       Symmetry analysis of molecular orbitals - alpha
       -----------------------------------------------

  Numbering of irreducible representations: 

     1 a1          2 a2          3 b1          4 b2      

  Orbital symmetries:

     1 a1          2 b1          3 b2          4 a2          5 a1      
     6 b2          7 b2          8 a1          9 a1         10 b2      
    11 b1         12 a1         13 b2         14 a2         15 a1      
    16 a1         17 b2         18 a1         19 b2         20 b1      
    21 a1         22 b1         23 a2         24 b1         25 b2      
    26 a1         27 a2         28 b2         29 a1         30 a1      
    31 a1         32 b1         33 b2         34 a1         35 b2      
    36 a2         37 b2         38 a1         39 b1      


       Symmetry analysis of molecular orbitals - beta
       ----------------------------------------------

  Numbering of irreducible representations: 

     1 a1          2 a2          3 b1          4 b2      

  Orbital symmetries:

     1 a1          2 b1          3 b2          4 a2          5 a1      
     6 b2          7 b2          8 a1          9 a1         10 b2      
    11 b1         12 a1         13 a2         14 b2         15 a1      
    16 a1         17 b2         18 b2         19 a1         20 b1      
    21 b1         22 a1         23 a2         24 b1         25 b2      
    26 a1         27 a2         28 a1         29 b2         30 a1      
    31 b1         32 a1         33 b2         34 a1         35 a2      
    36 b2         37 b2         38 b1         39 a1      

          Final alpha eigenvalues
          -----------------------

              1      
    1  -11.2365
    2  -11.2364
    3  -11.2360
    4  -11.2360
    5  -11.2334
    6  -11.2329
    7  -11.2307
    8  -11.2307
    9   -1.2273
   10   -1.0395
   11   -0.9698
   12   -0.9525
   13   -0.8041
   14   -0.7819
   15   -0.7692
   16   -0.7043
   17   -0.6542
   18   -0.6206
   19   -0.6064
   20   -0.5744
   21   -0.5608
   22   -0.5390
   23   -0.4425
   24   -0.4319
   25   -0.4125
   26   -0.4063
   27   -0.3813
   28   -0.3230
   29   -0.3186
   30    0.1843
   31    0.1978
   32    0.2095
   33    0.2290
   34    0.2422
   35    0.2491
   36    0.2536
   37    0.2641
   38    0.2676
   39    0.2693

          Final beta eigenvalues
          ----------------------

              1      
    1  -11.2376
    2  -11.2376
    3  -11.2372
    4  -11.2372
    5  -11.2319
    6  -11.2314
    7  -11.2045
    8  -11.2045
    9   -1.2086
   10   -0.9997
   11   -0.9643
   12   -0.9075
   13   -0.7804
   14   -0.7610
   15   -0.7326
   16   -0.6929
   17   -0.6400
   18   -0.5979
   19   -0.5936
   20   -0.5709
   21   -0.5289
   22   -0.5061
   23   -0.4258
   24   -0.4176
   25   -0.4019
   26   -0.3974
   27   -0.3801
   28    0.1382
   29    0.1577
   30    0.1917
   31    0.2117
   32    0.2127
   33    0.2379
   34    0.2489
   35    0.2559
   36    0.2593
   37    0.2675
   38    0.2709
   39    0.2743

                    UHF Final Alpha Molecular Orbital Analysis
                    ------------------------------------------

 Vector    9  Occ=1.000000D+00  E=-1.227253D+00  Symmetry=a1
              MO Center= -1.9D-15,  8.5D-16,  1.1D-01, r^2= 1.8D+00
   Bfn.  Coefficient  Atom+Function         Bfn.  Coefficient  Atom+Function  
  ----- ------------  ---------------      ----- ------------  ---------------
    83      0.148957  10 C  s               102      0.148957  12 C  s         
     7      0.139777   2 C  s                26      0.139777   4 C  s         
   121      0.139777  14 C  s               140      0.139777  16 C  s         

 Vector   10  Occ=1.000000D+00  E=-1.039527D+00  Symmetry=b2
              MO Center= -4.6D-17, -8.5D-16, -2.5D-01, r^2= 2.6D+00
   Bfn.  Coefficient  Atom+Function         Bfn.  Coefficient  Atom+Function  
  ----- ------------  ---------------      ----- ------------  ---------------
    45      0.199902   6 C  s                64     -0.199902   8 C  s         
    46      0.152400   6 C  s                65     -0.152400   8 C  s         

 Vector   11  Occ=1.000000D+00  E=-9.698087D-01  Symmetry=b1
              MO Center=  3.2D-16, -8.7D-17,  7.9D-03, r^2= 2.7D+00
   Bfn.  Coefficient  Atom+Function         Bfn.  Coefficient  Atom+Function  
  ----- ------------  ---------------      ----- ------------  ---------------
     7      0.197233   2 C  s                26      0.197233   4 C  s         
   121     -0.197233  14 C  s               140     -0.197233  16 C  s         
     8      0.169164   2 C  s                27      0.169164   4 C  s         
   122     -0.169164  14 C  s               141     -0.169164  16 C  s         

 Vector   12  Occ=1.000000D+00  E=-9.525332D-01  Symmetry=a1
              MO Center=  1.4D-17,  2.3D-16,  6.3D-03, r^2= 3.0D+00
   Bfn.  Coefficient  Atom+Function         Bfn.  Coefficient  Atom+Function  
  ----- ------------  ---------------      ----- ------------  ---------------
    46      0.199156   6 C  s                65      0.199156   8 C  s         
    45      0.197074   6 C  s                64      0.197074   8 C  s         
    83     -0.192717  10 C  s               102     -0.192717  12 C  s         
    84     -0.173310  10 C  s               103     -0.173310  12 C  s         

 Vector   13  Occ=1.000000D+00  E=-8.041256D-01  Symmetry=b2
              MO Center=  4.1D-18, -1.8D-16, -7.2D-03, r^2= 4.2D+00
   Bfn.  Coefficient  Atom+Function         Bfn.  Coefficient  Atom+Function  
  ----- ------------  ---------------      ----- ------------  ---------------
    84     -0.227552  10 C  s               103      0.227552  12 C  s         
    46      0.223294   6 C  s                65     -0.223294   8 C  s         
    45      0.184746   6 C  s                64     -0.184746   8 C  s         
    83     -0.182391  10 C  s               102      0.182391  12 C  s         

 Vector   14  Occ=1.000000D+00  E=-7.819452D-01  Symmetry=a2
              MO Center= -4.1D-17,  5.1D-17, -7.4D-02, r^2= 4.0D+00
   Bfn.  Coefficient  Atom+Function         Bfn.  Coefficient  Atom+Function  
  ----- ------------  ---------------      ----- ------------  ---------------
     8      0.207482   2 C  s                27     -0.207482   4 C  s         
   122     -0.207482  14 C  s               141      0.207482  16 C  s         
     7      0.174590   2 C  s                26     -0.174590   4 C  s         
   121     -0.174590  14 C  s               140      0.174590  16 C  s         
     1      0.152551   1 H  s                20     -0.152551   3 H  s         

 Vector   15  Occ=1.000000D+00  E=-7.692347D-01  Symmetry=a1
              MO Center= -7.4D-17,  2.1D-16, -8.2D-02, r^2= 4.2D+00
   Bfn.  Coefficient  Atom+Function         Bfn.  Coefficient  Atom+Function  
  ----- ------------  ---------------      ----- ------------  ---------------
    46      0.194329   6 C  s                65      0.194329   8 C  s         

 Vector   16  Occ=1.000000D+00  E=-7.043142D-01  Symmetry=a1
              MO Center= -9.0D-15,  3.9D-16,  2.0D-01, r^2= 4.3D+00
   Bfn.  Coefficient  Atom+Function         Bfn.  Coefficient  Atom+Function  
  ----- ------------  ---------------      ----- ------------  ---------------
     1      0.146248   1 H  s                20      0.146248   3 H  s         
   115      0.146248  13 H  s               134      0.146248  15 H  s         
     9      0.143773   2 C  px               28      0.143773   4 C  px        
   123     -0.143773  14 C  px              142     -0.143773  16 C  px        
    77      0.133322   9 H  s                96      0.133322  11 H  s         

 Vector   17  Occ=1.000000D+00  E=-6.542411D-01  Symmetry=b2
              MO Center=  4.9D-17,  8.4D-16,  1.7D-01, r^2= 5.1D+00
   Bfn.  Coefficient  Atom+Function         Bfn.  Coefficient  Atom+Function  
  ----- ------------  ---------------      ----- ------------  ---------------
    77      0.189968   9 H  s                96     -0.189968  11 H  s         
    39      0.155482   5 H  s                58     -0.155482   7 H  s         

 Vector   18  Occ=1.000000D+00  E=-6.206271D-01  Symmetry=a1
              MO Center=  3.9D-17, -6.3D-17, -3.4D-01, r^2= 3.2D+00
   Bfn.  Coefficient  Atom+Function         Bfn.  Coefficient  Atom+Function  
  ----- ------------  ---------------      ----- ------------  ---------------
    49      0.230599   6 C  pz               68      0.230599   8 C  pz        
    86     -0.180228  10 C  py              105      0.180228  12 C  py        
    10     -0.151895   2 C  py               29      0.151895   4 C  py        
   124     -0.151895  14 C  py              143      0.151895  16 C  py        

 Vector   19  Occ=1.000000D+00  E=-6.063669D-01  Symmetry=b2
              MO Center=  2.1D-15,  1.0D-15, -1.3D-01, r^2= 4.5D+00
   Bfn.  Coefficient  Atom+Function         Bfn.  Coefficient  Atom+Function  
  ----- ------------  ---------------      ----- ------------  ---------------
     9      0.181724   2 C  px               28     -0.181724   4 C  px        
   123     -0.181724  14 C  px              142      0.181724  16 C  px        
     1      0.174766   1 H  s                20     -0.174766   3 H  s         
   115      0.174766  13 H  s               134     -0.174766  15 H  s         
    49     -0.160452   6 C  pz               68      0.160452   8 C  pz        

 Vector   20  Occ=1.000000D+00  E=-5.743942D-01  Symmetry=b1
              MO Center=  3.6D-15, -8.2D-16,  1.3D-01, r^2= 3.3D+00
   Bfn.  Coefficient  Atom+Function         Bfn.  Coefficient  Atom+Function  
  ----- ------------  ---------------      ----- ------------  ---------------
    85      0.200625  10 C  px              104      0.200625  12 C  px        

 Vector   21  Occ=1.000000D+00  E=-5.608185D-01  Symmetry=a1
              MO Center= -2.1D-14, -1.8D-14,  2.1D-01, r^2= 4.0D+00
   Bfn.  Coefficient  Atom+Function         Bfn.  Coefficient  Atom+Function  
  ----- ------------  ---------------      ----- ------------  ---------------
    48      0.219693   6 C  py               67     -0.219693   8 C  py        
    77      0.200177   9 H  s                96      0.200177  11 H  s         
    87      0.189525  10 C  pz              106      0.189525  12 C  pz        

 Vector   22  Occ=1.000000D+00  E=-5.389805D-01  Symmetry=b1
              MO Center=  2.6D-14, -3.3D-15, -2.1D-01, r^2= 3.6D+00
   Bfn.  Coefficient  Atom+Function         Bfn.  Coefficient  Atom+Function  
  ----- ------------  ---------------      ----- ------------  ---------------
    47      0.205614   6 C  px               66      0.205614   8 C  px        
     1     -0.150194   1 H  s                20     -0.150194   3 H  s         
   115      0.150194  13 H  s               134      0.150194  15 H  s         

 Vector   23  Occ=1.000000D+00  E=-4.425038D-01  Symmetry=a2
              MO Center= -2.6D-15,  2.4D-14, -4.3D-01, r^2= 3.4D+00
   Bfn.  Coefficient  Atom+Function         Bfn.  Coefficient  Atom+Function  
  ----- ------------  ---------------      ----- ------------  ---------------
    47      0.303429   6 C  px               66     -0.303429   8 C  px        
    50      0.161594   6 C  px               69     -0.161594   8 C  px        
    11     -0.154757   2 C  pz               30      0.154757   4 C  pz        
   125      0.154757  14 C  pz              144     -0.154757  16 C  pz        
     9     -0.150158   2 C  px               28      0.150158   4 C  px        

 Vector   24  Occ=1.000000D+00  E=-4.319323D-01  Symmetry=b1
              MO Center=  4.2D-15, -1.2D-14,  2.7D-02, r^2= 2.9D+00
   Bfn.  Coefficient  Atom+Function         Bfn.  Coefficient  Atom+Function  
  ----- ------------  ---------------      ----- ------------  ---------------
    10      0.233212   2 C  py               29     -0.233212   4 C  py        
   124     -0.233212  14 C  py              143      0.233212  16 C  py        
    85     -0.177279  10 C  px              104     -0.177279  12 C  px        
    47     -0.162758   6 C  px               66     -0.162758   8 C  px        

 Vector   25  Occ=1.000000D+00  E=-4.124961D-01  Symmetry=b2
              MO Center= -2.6D-15, -1.6D-13,  1.8D-01, r^2= 3.7D+00
   Bfn.  Coefficient  Atom+Function         Bfn.  Coefficient  Atom+Function  
  ----- ------------  ---------------      ----- ------------  ---------------
    87      0.250026  10 C  pz              106     -0.250026  12 C  pz        
    11     -0.182266   2 C  pz               30      0.182266   4 C  pz        
   125     -0.182266  14 C  pz              144      0.182266  16 C  pz        
    77      0.180556   9 H  s                96     -0.180556  11 H  s         
    49      0.170275   6 C  pz               68     -0.170275   8 C  pz        

 Vector   26  Occ=1.000000D+00  E=-4.063498D-01  Symmetry=a1
              MO Center= -1.2D-15,  1.9D-13,  5.0D-01, r^2= 3.0D+00
   Bfn.  Coefficient  Atom+Function         Bfn.  Coefficient  Atom+Function  
  ----- ------------  ---------------      ----- ------------  ---------------
    86      0.322908  10 C  py              105     -0.322908  12 C  py        
    89      0.201604  10 C  py              108     -0.201604  12 C  py        
    49      0.152457   6 C  pz               68      0.152457   8 C  pz        

 Vector   27  Occ=1.000000D+00  E=-3.813297D-01  Symmetry=a2
              MO Center=  3.8D-15, -1.1D-14,  4.8D-01, r^2= 3.0D+00
   Bfn.  Coefficient  Atom+Function         Bfn.  Coefficient  Atom+Function  
  ----- ------------  ---------------      ----- ------------  ---------------
    85      0.299073  10 C  px              104     -0.299073  12 C  px        
    88      0.198804  10 C  px              107     -0.198804  12 C  px        
     9     -0.164369   2 C  px               28      0.164369   4 C  px        
   123     -0.164369  14 C  px              142      0.164369  16 C  px        
    11      0.156213   2 C  pz               30     -0.156213   4 C  pz        

 Vector   28  Occ=1.000000D+00  E=-3.230469D-01  Symmetry=b2
              MO Center=  6.0D-17, -9.7D-15, -9.2D-01, r^2= 3.0D+00
   Bfn.  Coefficient  Atom+Function         Bfn.  Coefficient  Atom+Function  
  ----- ------------  ---------------      ----- ------------  ---------------
    48      0.420919   6 C  py               67      0.420919   8 C  py        
    51      0.393756   6 C  py               70      0.393756   8 C  py        
    49     -0.176715   6 C  pz               68      0.176715   8 C  pz        
    52     -0.162445   6 C  pz               71      0.162445   8 C  pz        

 Vector   29  Occ=1.000000D+00  E=-3.186132D-01  Symmetry=a1
              MO Center=  9.4D-15, -9.4D-15, -5.5D-01, r^2= 3.4D+00
   Bfn.  Coefficient  Atom+Function         Bfn.  Coefficient  Atom+Function  
  ----- ------------  ---------------      ----- ------------  ---------------
    48      0.319741   6 C  py               51      0.321307   6 C  py        
    67     -0.319741   8 C  py               70     -0.321307   8 C  py        
    10     -0.180406   2 C  py               29      0.180406   4 C  py        
   124     -0.180406  14 C  py              143      0.180406  16 C  py        

 Vector   30  Occ=0.000000D+00  E= 1.842620D-01  Symmetry=a1
              MO Center=  8.6D-14,  4.7D-13, -9.1D-02, r^2= 1.0D+01
   Bfn.  Coefficient  Atom+Function         Bfn.  Coefficient  Atom+Function  
  ----- ------------  ---------------      ----- ------------  ---------------
    40      0.684867   5 H  s                46     -0.687671   6 C  s         
    59      0.684867   7 H  s                65     -0.687671   8 C  s         
     2      0.674071   1 H  s                21      0.674071   3 H  s         
   116      0.674071  13 H  s               135      0.674071  15 H  s         
    78      0.668046   9 H  s                97      0.668046  11 H  s         

 Vector   31  Occ=0.000000D+00  E= 1.977586D-01  Symmetry=a1
              MO Center=  2.1D-16, -4.8D-16, -2.1D-01, r^2= 8.5D+00
   Bfn.  Coefficient  Atom+Function         Bfn.  Coefficient  Atom+Function  
  ----- ------------  ---------------      ----- ------------  ---------------
    84      1.079204  10 C  s               103      1.079204  12 C  s         
    40      0.871981   5 H  s                46     -0.871220   6 C  s         
    59      0.871981   7 H  s                65     -0.871220   8 C  s         
    78     -0.634025   9 H  s                97     -0.634025  11 H  s         
    14     -0.344076   2 C  pz               33     -0.344076   4 C  pz        

 Vector   32  Occ=0.000000D+00  E= 2.095445D-01  Symmetry=b1
              MO Center= -4.8D-14, -1.6D-13,  1.2D-01, r^2= 8.7D+00
   Bfn.  Coefficient  Atom+Function         Bfn.  Coefficient  Atom+Function  
  ----- ------------  ---------------      ----- ------------  ---------------
     8      1.024227   2 C  s                27      1.024227   4 C  s         
   122     -1.024227  14 C  s               141     -1.024227  16 C  s         
     2     -0.851352   1 H  s                21     -0.851352   3 H  s         
   116      0.851352  13 H  s               135      0.851352  15 H  s         
    88     -0.390220  10 C  px              107     -0.390220  12 C  px        

 Vector   33  Occ=0.000000D+00  E= 2.289921D-01  Symmetry=b2
              MO Center=  1.6D-15, -1.7D-13,  6.7D-01, r^2= 1.1D+01
   Bfn.  Coefficient  Atom+Function         Bfn.  Coefficient  Atom+Function  
  ----- ------------  ---------------      ----- ------------  ---------------
    78      1.155040   9 H  s                97     -1.155040  11 H  s         
     2      0.683020   1 H  s                21     -0.683020   3 H  s         
   116      0.683020  13 H  s               135     -0.683020  15 H  s         
     8     -0.662230   2 C  s                27      0.662230   4 C  s         
   122     -0.662230  14 C  s               141      0.662230  16 C  s         

 Vector   34  Occ=0.000000D+00  E= 2.421528D-01  Symmetry=a1
              MO Center= -2.6D-14, -1.6D-15,  1.5D-01, r^2= 1.1D+01
   Bfn.  Coefficient  Atom+Function         Bfn.  Coefficient  Atom+Function  
  ----- ------------  ---------------      ----- ------------  ---------------
    78      0.977878   9 H  s                97      0.977878  11 H  s         
    40      0.934778   5 H  s                59      0.934778   7 H  s         
     2     -0.783106   1 H  s                21     -0.783106   3 H  s         
   116     -0.783106  13 H  s               135     -0.783106  15 H  s         
    84     -0.702567  10 C  s               103     -0.702567  12 C  s         

 Vector   35  Occ=0.000000D+00  E= 2.491419D-01  Symmetry=b2
              MO Center=  1.7D-13, -5.4D-13, -1.6D+00, r^2= 9.0D+00
   Bfn.  Coefficient  Atom+Function         Bfn.  Coefficient  Atom+Function  
  ----- ------------  ---------------      ----- ------------  ---------------
    40      1.638936   5 H  s                59     -1.638936   7 H  s         
    52      1.028399   6 C  pz               71     -1.028399   8 C  pz        
    84      0.758223  10 C  s               103     -0.758223  12 C  s         
    78     -0.651912   9 H  s                97      0.651912  11 H  s         
    46     -0.644736   6 C  s                65      0.644736   8 C  s         

 Vector   36  Occ=0.000000D+00  E= 2.536024D-01  Symmetry=a2
              MO Center= -1.8D-13,  1.7D-13,  4.9D-02, r^2= 1.1D+01
   Bfn.  Coefficient  Atom+Function         Bfn.  Coefficient  Atom+Function  
  ----- ------------  ---------------      ----- ------------  ---------------
     2      1.307670   1 H  s                21     -1.307670   3 H  s         
   116     -1.307670  13 H  s               135      1.307670  15 H  s         
    12     -0.832706   2 C  px               31      0.832706   4 C  px        
   126     -0.832706  14 C  px              145      0.832706  16 C  px        
     8     -0.728776   2 C  s                27      0.728776   4 C  s         

 Vector   37  Occ=0.000000D+00  E= 2.640842D-01  Symmetry=b2
              MO Center=  2.2D-15, -2.2D-13,  8.7D-01, r^2= 1.2D+01
   Bfn.  Coefficient  Atom+Function         Bfn.  Coefficient  Atom+Function  
  ----- ------------  ---------------      ----- ------------  ---------------
    78      1.481185   9 H  s                97     -1.481185  11 H  s         
    90     -1.425143  10 C  pz              109      1.425143  12 C  pz        
    12      1.347641   2 C  px               31     -1.347641   4 C  px        
   126     -1.347641  14 C  px              145      1.347641  16 C  px        
     2     -1.282694   1 H  s                21      1.282694   3 H  s         

 Vector   38  Occ=0.000000D+00  E= 2.676376D-01  Symmetry=a1
              MO Center= -1.5D-14,  5.2D-13,  1.9D-01, r^2= 8.2D+00
   Bfn.  Coefficient  Atom+Function         Bfn.  Coefficient  Atom+Function  
  ----- ------------  ---------------      ----- ------------  ---------------
    78      1.022789   9 H  s                97      1.022789  11 H  s         
    40     -0.927825   5 H  s                59     -0.927825   7 H  s         
    90     -0.898484  10 C  pz              109     -0.898484  12 C  pz        
    52     -0.778179   6 C  pz               71     -0.778179   8 C  pz        
    14     -0.451685   2 C  pz               33     -0.451685   4 C  pz        

 Vector   39  Occ=0.000000D+00  E= 2.692606D-01  Symmetry=b1
              MO Center=  2.0D-14,  4.1D-14,  2.7D-01, r^2= 6.9D+00
   Bfn.  Coefficient  Atom+Function         Bfn.  Coefficient  Atom+Function  
  ----- ------------  ---------------      ----- ------------  ---------------
     2      0.863124   1 H  s                21      0.863124   3 H  s         
   116     -0.863124  13 H  s               135     -0.863124  15 H  s         
    12     -0.805989   2 C  px               31     -0.805989   4 C  px        
   126     -0.805989  14 C  px              145     -0.805989  16 C  px        
    88     -0.623970  10 C  px              107     -0.623970  12 C  px        

 Vector   40  Occ=0.000000D+00  E= 3.171128D-01  Symmetry=b2
              MO Center=  8.3D-16, -2.4D-14,  7.6D-01, r^2= 4.5D+00
   Bfn.  Coefficient  Atom+Function         Bfn.  Coefficient  Atom+Function  
  ----- ------------  ---------------      ----- ------------  ---------------
    89      1.270480  10 C  py              108      1.270480  12 C  py        
    84      0.678483  10 C  s               103     -0.678483  12 C  s         
    13      0.627520   2 C  py               32      0.627520   4 C  py        
   127      0.627520  14 C  py              146      0.627520  16 C  py        
    78      0.585966   9 H  s                97     -0.585966  11 H  s         

 Vector   41  Occ=0.000000D+00  E= 3.709361D-01  Symmetry=a2
              MO Center= -5.8D-15, -1.1D-15,  3.2D-02, r^2= 4.5D+00
   Bfn.  Coefficient  Atom+Function         Bfn.  Coefficient  Atom+Function  
  ----- ------------  ---------------      ----- ------------  ---------------
    13      1.038204   2 C  py               32      1.038204   4 C  py        
   127     -1.038204  14 C  py              146     -1.038204  16 C  py        
    88      0.660539  10 C  px              107     -0.660539  12 C  px        
    12      0.420576   2 C  px               31     -0.420576   4 C  px        
   126      0.420576  14 C  px              145     -0.420576  16 C  px        

 Vector   42  Occ=0.000000D+00  E= 3.735843D-01  Symmetry=b1
              MO Center= -3.8D-15, -1.1D-15, -3.2D-01, r^2= 4.7D+00
   Bfn.  Coefficient  Atom+Function         Bfn.  Coefficient  Atom+Function  
  ----- ------------  ---------------      ----- ------------  ---------------
    50      1.146776   6 C  px               69      1.146776   8 C  px        
    14      0.783007   2 C  pz               33      0.783007   4 C  pz        
   128     -0.783007  14 C  pz              147     -0.783007  16 C  pz        
    88     -0.591179  10 C  px              107     -0.591179  12 C  px        
     8     -0.420125   2 C  s                27     -0.420125   4 C  s         

 Vector   43  Occ=0.000000D+00  E= 4.045428D-01  Symmetry=b2
              MO Center= -1.0D-16, -6.5D-15, -1.5D-01, r^2= 5.6D+00
   Bfn.  Coefficient  Atom+Function         Bfn.  Coefficient  Atom+Function  
  ----- ------------  ---------------      ----- ------------  ---------------
    84      1.665170  10 C  s               103     -1.665170  12 C  s         
    90     -1.264622  10 C  pz              109      1.264622  12 C  pz        
    46     -1.251937   6 C  s                65      1.251937   8 C  s         
    14     -1.095023   2 C  pz               33      1.095023   4 C  pz        
   128     -1.095023  14 C  pz              147      1.095023  16 C  pz        

 Vector   44  Occ=0.000000D+00  E= 4.195830D-01  Symmetry=a2
              MO Center=  8.9D-15, -4.2D-14, -3.3D-01, r^2= 6.5D+00
   Bfn.  Coefficient  Atom+Function         Bfn.  Coefficient  Atom+Function  
  ----- ------------  ---------------      ----- ------------  ---------------
     8      2.095076   2 C  s                27     -2.095076   4 C  s         
   122     -2.095076  14 C  s               141      2.095076  16 C  s         
    12     -1.294367   2 C  px               31      1.294367   4 C  px        
   126     -1.294367  14 C  px              145      1.294367  16 C  px        
    50     -1.071768   6 C  px               69      1.071768   8 C  px        

 Vector   45  Occ=0.000000D+00  E= 4.226658D-01  Symmetry=a1
              MO Center=  9.6D-16, -2.0D-15, -7.7D-02, r^2= 5.9D+00
   Bfn.  Coefficient  Atom+Function         Bfn.  Coefficient  Atom+Function  
  ----- ------------  ---------------      ----- ------------  ---------------
    46     -1.884536   6 C  s                65     -1.884536   8 C  s         
     8      1.795235   2 C  s                27      1.795235   4 C  s         
   122      1.795235  14 C  s               141      1.795235  16 C  s         
    84     -1.460197  10 C  s               103     -1.460197  12 C  s         
    52     -1.357344   6 C  pz               71     -1.357344   8 C  pz        

 Vector   46  Occ=0.000000D+00  E= 5.122041D-01  Symmetry=b2
              MO Center= -8.2D-16,  1.1D-15,  3.3D-01, r^2= 5.3D+00
   Bfn.  Coefficient  Atom+Function         Bfn.  Coefficient  Atom+Function  
  ----- ------------  ---------------      ----- ------------  ---------------
    89      1.781083  10 C  py              108      1.781083  12 C  py        
    46     -1.490112   6 C  s                65      1.490112   8 C  s         
    13     -1.473861   2 C  py               32     -1.473861   4 C  py        
   127     -1.473861  14 C  py              146     -1.473861  16 C  py        
    84      1.210498  10 C  s               103     -1.210498  12 C  s         


                     UHF Final Beta Molecular Orbital Analysis
                     -----------------------------------------

 Vector    9  Occ=1.000000D+00  E=-1.208630D+00  Symmetry=a1
              MO Center= -6.5D-17, -4.0D-17,  2.2D-01, r^2= 1.7D+00
   Bfn.  Coefficient  Atom+Function         Bfn.  Coefficient  Atom+Function  
  ----- ------------  ---------------      ----- ------------  ---------------
    83      0.159240  10 C  s               102      0.159240  12 C  s         

 Vector   10  Occ=1.000000D+00  E=-9.997079D-01  Symmetry=b2
              MO Center= -1.1D-15,  5.3D-16, -2.3D-02, r^2= 2.6D+00
   Bfn.  Coefficient  Atom+Function         Bfn.  Coefficient  Atom+Function  
  ----- ------------  ---------------      ----- ------------  ---------------
    45      0.148901   6 C  s                64     -0.148901   8 C  s         
     7      0.139288   2 C  s                26     -0.139288   4 C  s         
   121      0.139288  14 C  s               140     -0.139288  16 C  s         
     8      0.136983   2 C  s                27     -0.136983   4 C  s         
   122      0.136983  14 C  s               141     -0.136983  16 C  s         

 Vector   11  Occ=1.000000D+00  E=-9.642687D-01  Symmetry=b1
              MO Center=  3.0D-16, -7.7D-16,  1.8D-02, r^2= 2.8D+00
   Bfn.  Coefficient  Atom+Function         Bfn.  Coefficient  Atom+Function  
  ----- ------------  ---------------      ----- ------------  ---------------
     7      0.198662   2 C  s                26      0.198662   4 C  s         
   121     -0.198662  14 C  s               140     -0.198662  16 C  s         
     8      0.172607   2 C  s                27      0.172607   4 C  s         
   122     -0.172607  14 C  s               141     -0.172607  16 C  s         

 Vector   12  Occ=1.000000D+00  E=-9.075450D-01  Symmetry=a1
              MO Center= -9.3D-17, -3.4D-16,  2.5D-01, r^2= 2.9D+00
   Bfn.  Coefficient  Atom+Function         Bfn.  Coefficient  Atom+Function  
  ----- ------------  ---------------      ----- ------------  ---------------
    83      0.199788  10 C  s                84      0.199976  10 C  s         
   102      0.199788  12 C  s               103      0.199976  12 C  s         
    45     -0.155946   6 C  s                64     -0.155946   8 C  s         

 Vector   13  Occ=1.000000D+00  E=-7.804044D-01  Symmetry=a2
              MO Center=  1.9D-15, -1.6D-15, -6.2D-02, r^2= 4.0D+00
   Bfn.  Coefficient  Atom+Function         Bfn.  Coefficient  Atom+Function  
  ----- ------------  ---------------      ----- ------------  ---------------
     8      0.209032   2 C  s                27     -0.209032   4 C  s         
   122     -0.209032  14 C  s               141      0.209032  16 C  s         
     7      0.179913   2 C  s                26     -0.179913   4 C  s         
   121     -0.179913  14 C  s               140      0.179913  16 C  s         
     1      0.150698   1 H  s                20     -0.150698   3 H  s         

 Vector   14  Occ=1.000000D+00  E=-7.609990D-01  Symmetry=b2
              MO Center=  3.8D-17,  4.7D-17,  1.2D-01, r^2= 4.3D+00
   Bfn.  Coefficient  Atom+Function         Bfn.  Coefficient  Atom+Function  
  ----- ------------  ---------------      ----- ------------  ---------------
    84      0.234806  10 C  s               103     -0.234806  12 C  s         
    83      0.179796  10 C  s               102     -0.179796  12 C  s         
    45     -0.172449   6 C  s                64      0.172449   8 C  s         
    77      0.172532   9 H  s                96     -0.172532  11 H  s         
    46     -0.162977   6 C  s                65      0.162977   8 C  s         

 Vector   15  Occ=1.000000D+00  E=-7.325559D-01  Symmetry=a1
              MO Center= -2.3D-16, -6.5D-17, -3.2D-01, r^2= 4.3D+00
   Bfn.  Coefficient  Atom+Function         Bfn.  Coefficient  Atom+Function  
  ----- ------------  ---------------      ----- ------------  ---------------
    45      0.154541   6 C  s                64      0.154541   8 C  s         

 Vector   16  Occ=1.000000D+00  E=-6.929492D-01  Symmetry=a1
              MO Center=  7.1D-17,  3.5D-16,  2.5D-01, r^2= 4.4D+00
   Bfn.  Coefficient  Atom+Function         Bfn.  Coefficient  Atom+Function  
  ----- ------------  ---------------      ----- ------------  ---------------
    77      0.165500   9 H  s                96      0.165500  11 H  s         
    87      0.156944  10 C  pz              106      0.156944  12 C  pz        

 Vector   17  Occ=1.000000D+00  E=-6.400224D-01  Symmetry=b2
              MO Center= -4.4D-16, -1.0D-14, -2.3D-01, r^2= 5.3D+00
   Bfn.  Coefficient  Atom+Function         Bfn.  Coefficient  Atom+Function  
  ----- ------------  ---------------      ----- ------------  ---------------
    39      0.200698   5 H  s                58     -0.200698   7 H  s         
    77      0.161099   9 H  s                96     -0.161099  11 H  s         

 Vector   18  Occ=1.000000D+00  E=-5.978739D-01  Symmetry=b2
              MO Center= -1.1D-15, -1.2D-16, -1.0D-01, r^2= 4.5D+00
   Bfn.  Coefficient  Atom+Function         Bfn.  Coefficient  Atom+Function  
  ----- ------------  ---------------      ----- ------------  ---------------
     9      0.185729   2 C  px               28     -0.185729   4 C  px        
   123     -0.185729  14 C  px              142      0.185729  16 C  px        
     1      0.168324   1 H  s                20     -0.168324   3 H  s         
   115      0.168324  13 H  s               134     -0.168324  15 H  s         
    49     -0.153424   6 C  pz               68      0.153424   8 C  pz        

 Vector   19  Occ=1.000000D+00  E=-5.936497D-01  Symmetry=a1
              MO Center= -2.1D-17, -2.6D-16, -1.9D-01, r^2= 3.9D+00
   Bfn.  Coefficient  Atom+Function         Bfn.  Coefficient  Atom+Function  
  ----- ------------  ---------------      ----- ------------  ---------------
    86      0.229705  10 C  py              105     -0.229705  12 C  py        
    49     -0.197058   6 C  pz               68     -0.197058   8 C  pz        
    39      0.195810   5 H  s                58      0.195810   7 H  s         

 Vector   20  Occ=1.000000D+00  E=-5.709105D-01  Symmetry=b1
              MO Center= -1.8D-17,  3.9D-16,  1.6D-01, r^2= 3.3D+00
   Bfn.  Coefficient  Atom+Function         Bfn.  Coefficient  Atom+Function  
  ----- ------------  ---------------      ----- ------------  ---------------
    85      0.205300  10 C  px              104      0.205300  12 C  px        
    11      0.153825   2 C  pz               30      0.153825   4 C  pz        
   125     -0.153825  14 C  pz              144     -0.153825  16 C  pz        

 Vector   21  Occ=1.000000D+00  E=-5.288572D-01  Symmetry=b1
              MO Center=  2.2D-16,  4.2D-16, -2.1D-01, r^2= 3.5D+00
   Bfn.  Coefficient  Atom+Function         Bfn.  Coefficient  Atom+Function  
  ----- ------------  ---------------      ----- ------------  ---------------
    47      0.188591   6 C  px               66      0.188591   8 C  px        
     9     -0.153891   2 C  px               28     -0.153891   4 C  px        
   123     -0.153891  14 C  px              142     -0.153891  16 C  px        
    11     -0.151153   2 C  pz               30     -0.151153   4 C  pz        
   125      0.151153  14 C  pz              144      0.151153  16 C  pz        

 Vector   22  Occ=1.000000D+00  E=-5.061129D-01  Symmetry=a1
              MO Center=  3.0D-16,  1.0D-14,  2.7D-01, r^2= 3.3D+00
   Bfn.  Coefficient  Atom+Function         Bfn.  Coefficient  Atom+Function  
  ----- ------------  ---------------      ----- ------------  ---------------
    87      0.214658  10 C  pz              106      0.214658  12 C  pz        
    10      0.169382   2 C  py               29     -0.169382   4 C  py        
   124      0.169382  14 C  py              143     -0.169382  16 C  py        

 Vector   23  Occ=1.000000D+00  E=-4.258499D-01  Symmetry=a2
              MO Center= -1.9D-16,  1.3D-15, -4.0D-01, r^2= 3.4D+00
   Bfn.  Coefficient  Atom+Function         Bfn.  Coefficient  Atom+Function  
  ----- ------------  ---------------      ----- ------------  ---------------
    47      0.279907   6 C  px               66     -0.279907   8 C  px        
    11     -0.166785   2 C  pz               30      0.166785   4 C  pz        
   125      0.166785  14 C  pz              144     -0.166785  16 C  pz        
     9     -0.159333   2 C  px               28      0.159333   4 C  px        
   123     -0.159333  14 C  px              142      0.159333  16 C  px        

 Vector   24  Occ=1.000000D+00  E=-4.175854D-01  Symmetry=b1
              MO Center=  2.3D-15, -3.0D-16,  2.1D-02, r^2= 2.9D+00
   Bfn.  Coefficient  Atom+Function         Bfn.  Coefficient  Atom+Function  
  ----- ------------  ---------------      ----- ------------  ---------------
    10      0.242647   2 C  py               29     -0.242647   4 C  py        
   124     -0.242647  14 C  py              143      0.242647  16 C  py        
    85     -0.167678  10 C  px              104     -0.167678  12 C  px        

 Vector   25  Occ=1.000000D+00  E=-4.018610D-01  Symmetry=b2
              MO Center= -7.7D-15, -1.7D-13,  1.9D-01, r^2= 3.6D+00
   Bfn.  Coefficient  Atom+Function         Bfn.  Coefficient  Atom+Function  
  ----- ------------  ---------------      ----- ------------  ---------------
    87      0.243178  10 C  pz              106     -0.243178  12 C  pz        
    11     -0.196379   2 C  pz               30      0.196379   4 C  pz        
   125     -0.196379  14 C  pz              144      0.196379  16 C  pz        
    77      0.177389   9 H  s                96     -0.177389  11 H  s         
    49      0.167449   6 C  pz               68     -0.167449   8 C  pz        

 Vector   26  Occ=1.000000D+00  E=-3.973742D-01  Symmetry=a1
              MO Center=  1.9D-16,  1.6D-13,  4.9D-01, r^2= 3.0D+00
   Bfn.  Coefficient  Atom+Function         Bfn.  Coefficient  Atom+Function  
  ----- ------------  ---------------      ----- ------------  ---------------
    86      0.313284  10 C  py              105     -0.313284  12 C  py        
    89      0.199282  10 C  py              108     -0.199282  12 C  py        

 Vector   27  Occ=1.000000D+00  E=-3.800906D-01  Symmetry=a2
              MO Center=  7.0D-15, -1.7D-17,  4.7D-01, r^2= 3.0D+00
   Bfn.  Coefficient  Atom+Function         Bfn.  Coefficient  Atom+Function  
  ----- ------------  ---------------      ----- ------------  ---------------
    85      0.295344  10 C  px              104     -0.295344  12 C  px        
    88      0.195402  10 C  px              107     -0.195402  12 C  px        
     9     -0.166415   2 C  px               28      0.166415   4 C  px        
   123     -0.166415  14 C  px              142      0.166415  16 C  px        
    11      0.158310   2 C  pz               30     -0.158310   4 C  pz        

 Vector   28  Occ=0.000000D+00  E= 1.382105D-01  Symmetry=a1
              MO Center= -4.3D-15,  2.9D-13, -8.1D-01, r^2= 4.2D+00
   Bfn.  Coefficient  Atom+Function         Bfn.  Coefficient  Atom+Function  
  ----- ------------  ---------------      ----- ------------  ---------------
    51      0.403885   6 C  py               70     -0.403885   8 C  py        
     2      0.331412   1 H  s                21      0.331412   3 H  s         
   116      0.331412  13 H  s               135      0.331412  15 H  s         
     8     -0.289711   2 C  s                27     -0.289711   4 C  s         
   122     -0.289711  14 C  s               141     -0.289711  16 C  s         

 Vector   29  Occ=0.000000D+00  E= 1.576976D-01  Symmetry=b2
              MO Center=  6.0D-15, -4.1D-14, -4.0D-01, r^2= 4.5D+00
   Bfn.  Coefficient  Atom+Function         Bfn.  Coefficient  Atom+Function  
  ----- ------------  ---------------      ----- ------------  ---------------
    84      0.592254  10 C  s               103     -0.592254  12 C  s         
    51      0.445912   6 C  py               70      0.445912   8 C  py        
    46      0.340397   6 C  s                65     -0.340397   8 C  s         
     8      0.272254   2 C  s                27     -0.272254   4 C  s         
   122      0.272254  14 C  s               141     -0.272254  16 C  s         

 Vector   30  Occ=0.000000D+00  E= 1.916504D-01  Symmetry=a1
              MO Center= -1.1D-14, -1.8D-14,  8.0D-01, r^2= 9.3D+00
   Bfn.  Coefficient  Atom+Function         Bfn.  Coefficient  Atom+Function  
  ----- ------------  ---------------      ----- ------------  ---------------
    78      0.930917   9 H  s                97      0.930917  11 H  s         
    84     -0.803622  10 C  s               103     -0.803622  12 C  s         
     2      0.650368   1 H  s                21      0.650368   3 H  s         
   116      0.650368  13 H  s               135      0.650368  15 H  s         
     8     -0.477094   2 C  s                27     -0.477094   4 C  s         

 Vector   31  Occ=0.000000D+00  E= 2.116636D-01  Symmetry=b1
              MO Center= -9.4D-15, -7.2D-16,  1.2D-01, r^2= 8.8D+00
   Bfn.  Coefficient  Atom+Function         Bfn.  Coefficient  Atom+Function  
  ----- ------------  ---------------      ----- ------------  ---------------
     8      1.008354   2 C  s                27      1.008354   4 C  s         
   122     -1.008354  14 C  s               141     -1.008354  16 C  s         
     2     -0.868143   1 H  s                21     -0.868143   3 H  s         
   116      0.868143  13 H  s               135      0.868143  15 H  s         
    88     -0.392647  10 C  px              107     -0.392647  12 C  px        

 Vector   32  Occ=0.000000D+00  E= 2.126691D-01  Symmetry=a1
              MO Center=  1.2D-16,  1.2D-14, -9.9D-01, r^2= 7.7D+00
   Bfn.  Coefficient  Atom+Function         Bfn.  Coefficient  Atom+Function  
  ----- ------------  ---------------      ----- ------------  ---------------
    40      1.098857   5 H  s                59      1.098857   7 H  s         
    46     -0.986759   6 C  s                65     -0.986759   8 C  s         
    84      0.942185  10 C  s               103      0.942185  12 C  s         
    52      0.486045   6 C  pz               71      0.486045   8 C  pz        
    78     -0.412059   9 H  s                97     -0.412059  11 H  s         

 Vector   33  Occ=0.000000D+00  E= 2.379285D-01  Symmetry=b2
              MO Center=  1.6D-15, -4.4D-14,  8.8D-01, r^2= 1.0D+01
   Bfn.  Coefficient  Atom+Function         Bfn.  Coefficient  Atom+Function  
  ----- ------------  ---------------      ----- ------------  ---------------
    78      1.304063   9 H  s                97     -1.304063  11 H  s         
    90     -0.738113  10 C  pz              109      0.738113  12 C  pz        
     2      0.670798   1 H  s                21     -0.670798   3 H  s         
   116      0.670798  13 H  s               135     -0.670798  15 H  s         
    89      0.601368  10 C  py              108      0.601368  12 C  py        

 Vector   34  Occ=0.000000D+00  E= 2.489281D-01  Symmetry=a1
              MO Center= -1.8D-15,  1.9D-14, -1.5D-01, r^2= 1.1D+01
   Bfn.  Coefficient  Atom+Function         Bfn.  Coefficient  Atom+Function  
  ----- ------------  ---------------      ----- ------------  ---------------
    40      1.015258   5 H  s                59      1.015258   7 H  s         
    78      0.927432   9 H  s                97      0.927432  11 H  s         
     2     -0.798561   1 H  s                21     -0.798561   3 H  s         
   116     -0.798561  13 H  s               135     -0.798561  15 H  s         
    52      0.659380   6 C  pz               71      0.659380   8 C  pz        

 Vector   35  Occ=0.000000D+00  E= 2.559440D-01  Symmetry=a2
              MO Center= -3.9D-15, -6.6D-16,  5.4D-02, r^2= 1.1D+01
   Bfn.  Coefficient  Atom+Function         Bfn.  Coefficient  Atom+Function  
  ----- ------------  ---------------      ----- ------------  ---------------
     2      1.325507   1 H  s                21     -1.325507   3 H  s         
   116     -1.325507  13 H  s               135      1.325507  15 H  s         
    12     -0.847943   2 C  px               31      0.847943   4 C  px        
   126     -0.847943  14 C  px              145      0.847943  16 C  px        
     8     -0.695843   2 C  s                27      0.695843   4 C  s         

 Vector   36  Occ=0.000000D+00  E= 2.593145D-01  Symmetry=b2
              MO Center= -5.3D-15, -1.4D-12, -6.8D-01, r^2= 1.1D+01
   Bfn.  Coefficient  Atom+Function         Bfn.  Coefficient  Atom+Function  
  ----- ------------  ---------------      ----- ------------  ---------------
    40      1.341525   5 H  s                59     -1.341525   7 H  s         
    78     -1.181766   9 H  s                97      1.181766  11 H  s         
    46     -1.011151   6 C  s                65      1.011151   8 C  s         
    90      0.866992  10 C  pz              109     -0.866992  12 C  pz        
    52      0.683305   6 C  pz               71     -0.683305   8 C  pz        

 Vector   37  Occ=0.000000D+00  E= 2.674584D-01  Symmetry=b2
              MO Center=  1.5D-15, -1.7D-13, -3.9D-01, r^2= 1.2D+01
   Bfn.  Coefficient  Atom+Function         Bfn.  Coefficient  Atom+Function  
  ----- ------------  ---------------      ----- ------------  ---------------
    12     -1.387498   2 C  px               31      1.387498   4 C  px        
   126      1.387498  14 C  px              145     -1.387498  16 C  px        
    84     -1.282197  10 C  s               103      1.282197  12 C  s         
     2      1.268076   1 H  s                21     -1.268076   3 H  s         
   116      1.268076  13 H  s               135     -1.268076  15 H  s         

 Vector   38  Occ=0.000000D+00  E= 2.709300D-01  Symmetry=b1
              MO Center= -1.2D-14, -9.4D-16,  3.0D-01, r^2= 6.8D+00
   Bfn.  Coefficient  Atom+Function         Bfn.  Coefficient  Atom+Function  
[...]
   18 Stretch                 14    16                       1.61514    0.02300
   19 Stretch                 15    16                       1.10145   -0.00066
   20 Bend                     1     2     4               115.56384   -3.40223
   21 Bend                     1     2     6               122.06921   -0.03913
   22 Bend                     1     2    10               124.88027    0.40305
   23 Bend                     2     4     3               115.56384   -3.40223
   24 Bend                     2     4     8               110.24789    4.64068
   25 Bend                     2     4    12                88.90055   -0.55710
   26 Bend                     2     6     5               131.20713   -3.07987
   27 Bend                     2     6    14                90.65164   -0.70149
   28 Bend                     2    10     9               124.24664   -0.35634
   29 Bend                     2    10    12                91.09945    0.55710
   30 Bend                     2    10    14                85.74005   -1.68357
   31 Bend                     3     4     8               122.06921   -0.03913
   32 Bend                     3     4    12               124.88027    0.40305
   33 Bend                     4     2     6               110.24789    4.64068
   34 Bend                     4     2    10                88.90055   -0.55710
   35 Bend                     4     8     7               131.20713   -3.07987
   36 Bend                     4     8    16                90.65164   -0.70149
   37 Bend                     4    12    10                91.09945    0.55710
   38 Bend                     4    12    11               124.24664   -0.35634
   39 Bend                     4    12    16                85.74005   -1.68357
   40 Bend                     5     6    14               131.20713   -3.07987
   41 Bend                     6     2    10                88.35078   -0.17308
   42 Bend                     6    14    10                88.35078   -0.17308
   43 Bend                     6    14    13               122.06921   -0.03913
   44 Bend                     6    14    16               110.24789    4.64068
   45 Bend                     7     8    16               131.20713   -3.07987
   46 Bend                     8     4    12                88.35078   -0.17308
   47 Bend                     8    16    12                88.35078   -0.17308
   48 Bend                     8    16    14               110.24789    4.64068
   49 Bend                     8    16    15               122.06921   -0.03913
   50 Bend                     9    10    12               128.33858    0.86966
   51 Bend                     9    10    14               124.24664   -0.35634
   52 Bend                    10    12    11               128.33858    0.86966
   53 Bend                    10    12    16                91.09945    0.55710
   54 Bend                    10    14    13               124.88027    0.40305
   55 Bend                    10    14    16                88.90055   -0.55710
   56 Bend                    11    12    16               124.24664   -0.35634
   57 Bend                    12    10    14                91.09945    0.55710
   58 Bend                    12    16    14                88.90055   -0.55710
   59 Bend                    12    16    15               124.88027    0.40305
   60 Bend                    13    14    16               115.56384   -3.40223
   61 Bend                    14    16    15               115.56384   -3.40223
   62 Torsion                  1     2     4     3           0.00000    0.00000
   63 Torsion                  1     2     4     8         143.49231    1.73455
   64 Torsion                  1     2     4    12        -128.67175    1.25480
   65 Torsion                  1     2     6     5         -56.46283  -19.93610
   66 Torsion                  1     2     6    14         151.20311    4.84023
   67 Torsion                  1     2    10     9         -18.93778   -6.24594
   68 Torsion                  1     2    10    12         120.84615   -4.67533
   69 Torsion                  1     2    10    14        -148.13308   -4.17307
   70 Torsion                  2     4     8     7         -84.24080   19.48923
   71 Torsion                  2     4     8    16          68.09326   -5.28710
   72 Torsion                  2     4    12    10           0.00000    0.00000
   73 Torsion                  2     4    12    11         139.78393    1.57062
   74 Torsion                  2     4    12    16         -91.02078   -0.50226
   75 Torsion                  2     6    14    10         -20.12565   -4.48179
   76 Torsion                  2     6    14    13        -151.20311   -4.84023
   77 Torsion                  2     6    14    16          68.09326   -5.28710
   78 Torsion                  2    10    12     4           0.00000    0.00000
   79 Torsion                  2    10    12    11        -137.12018   -0.83445
   80 Torsion                  2    10    12    16          85.75964   -1.66889
   81 Torsion                  2    10    14     6          19.27352    4.16428
   82 Torsion                  2    10    14    13         148.13308    4.17307
   83 Torsion                  2    10    14    16         -91.02078   -0.50226
   84 Torsion                  3     4     2     6        -143.49231   -1.73455
   85 Torsion                  3     4     2    10         128.67175   -1.25480
   86 Torsion                  3     4     8     7          56.46283   19.93610
   87 Torsion                  3     4     8    16        -151.20311   -4.84023
   88 Torsion                  3     4    12    10        -120.84615    4.67533
   89 Torsion                  3     4    12    11          18.93778    6.24594
   90 Torsion                  3     4    12    16         148.13308    4.17307
   91 Torsion                  4     2     6     5          84.24080  -19.48923
   92 Torsion                  4     2     6    14         -68.09326    5.28710
   93 Torsion                  4     2    10     9        -139.78393   -1.57062
   94 Torsion                  4     2    10    12           0.00000    0.00000
   95 Torsion                  4     2    10    14          91.02078    0.50226
   96 Torsion                  4     8    16    12          20.12565    4.48179
   97 Torsion                  4     8    16    14         -68.09326    5.28710
   98 Torsion                  4     8    16    15         151.20311    4.84023
   99 Torsion                  4    12    10     9         137.12018    0.83445
  100 Torsion                  4    12    10    14         -85.75964    1.66889
  101 Torsion                  4    12    16     8         -19.27352   -4.16428
  102 Torsion                  4    12    16    14          91.02078    0.50226
  103 Torsion                  4    12    16    15        -148.13308   -4.17307
  104 Torsion                  5     6     2    10         172.45971  -20.29454
  105 Torsion                  5     6    14    10        -172.45971   20.29454
  106 Torsion                  5     6    14    13          56.46283   19.93610
  107 Torsion                  5     6    14    16         -84.24080   19.48923
  108 Torsion                  6     2     4     8           0.00000    0.00000
  109 Torsion                  6     2     4    12          87.83594   -0.47976
  110 Torsion                  6     2    10     9         109.92177   -6.23716
  111 Torsion                  6     2    10    12        -110.29429   -4.66654
  112 Torsion                  6     2    10    14         -19.27352   -4.16428
  113 Torsion                  6    14    10     9        -109.92177    6.23716
  114 Torsion                  6    14    10    12         110.29429    4.66654
  115 Torsion                  6    14    16     8           0.00000    0.00000
  116 Torsion                  6    14    16    12         -87.83594    0.47976
  117 Torsion                  6    14    16    15         143.49231    1.73455
  118 Torsion                  7     8     4    12        -172.45971   20.29454
  119 Torsion                  7     8    16    12         172.45971  -20.29454
  120 Torsion                  7     8    16    14          84.24080  -19.48923
  121 Torsion                  7     8    16    15         -56.46283  -19.93610
  122 Torsion                  8     4     2    10         -87.83594    0.47976
  123 Torsion                  8     4    12    10         110.29429    4.66654
  124 Torsion                  8     4    12    11        -109.92177    6.23716
  125 Torsion                  8     4    12    16          19.27352    4.16428
  126 Torsion                  8    16    12    10        -110.29429   -4.66654
  127 Torsion                  8    16    12    11         109.92177   -6.23716
  128 Torsion                  8    16    14    10          87.83594   -0.47976
  129 Torsion                  8    16    14    13        -143.49231   -1.73455
  130 Torsion                  9    10    12    11           0.00000    0.00000
  131 Torsion                  9    10    12    16        -137.12018   -0.83445
  132 Torsion                  9    10    14    13          18.93778    6.24594
  133 Torsion                  9    10    14    16         139.78393    1.57062
  134 Torsion                 10     2     4    12           0.00000    0.00000
  135 Torsion                 10     2     6    14          20.12565    4.48179
  136 Torsion                 10    12    16    14           0.00000    0.00000
  137 Torsion                 10    12    16    15         120.84615   -4.67533
  138 Torsion                 10    14    16    12           0.00000    0.00000
  139 Torsion                 10    14    16    15        -128.67175    1.25480
  140 Torsion                 11    12    10    14         137.12018    0.83445
  141 Torsion                 11    12    16    14        -139.78393   -1.57062
  142 Torsion                 11    12    16    15         -18.93778   -6.24594
  143 Torsion                 12     4     8    16         -20.12565   -4.48179
  144 Torsion                 12    10    14    13        -120.84615    4.67533
  145 Torsion                 12    10    14    16          -0.00000    0.00000
  146 Torsion                 12    16    14    13         128.67175   -1.25480
  147 Torsion                 13    14    16    15           0.00000    0.00000
  148 Torsion                 14    10    12    16           0.00000    0.00000

 ==============================================================================
                                internuclear distances
 ------------------------------------------------------------------------------
       center one      |      center two      | atomic units |  angstroms
 ------------------------------------------------------------------------------
    2 C                |   1 H                |     2.08143  |     1.10145
    4 C                |   2 C                |     3.05218  |     1.61514
    4 C                |   3 H                |     2.08143  |     1.10145
    6 C                |   2 C                |     2.85576  |     1.51120
    6 C                |   5 H                |     2.07407  |     1.09755
    8 C                |   4 C                |     2.85576  |     1.51120
    8 C                |   7 H                |     2.07407  |     1.09755
   10 C                |   2 C                |     2.98495  |     1.57957
   10 C                |   9 H                |     2.07804  |     1.09965
   12 C                |   4 C                |     2.98495  |     1.57957
   12 C                |  10 C                |     2.93763  |     1.55453
   12 C                |  11 H                |     2.07804  |     1.09965
   14 C                |   6 C                |     2.85576  |     1.51120
   14 C                |  10 C                |     2.98495  |     1.57957
   14 C                |  13 H                |     2.08143  |     1.10145
   16 C                |   8 C                |     2.85576  |     1.51120
   16 C                |  12 C                |     2.98495  |     1.57957
   16 C                |  14 C                |     3.05218  |     1.61514
   16 C                |  15 H                |     2.08143  |     1.10145
 ------------------------------------------------------------------------------
                         number of included internuclear distances:         19
 ==============================================================================



 ==============================================================================
                                 internuclear angles
 ------------------------------------------------------------------------------
        center 1       |       center 2       |       center 3       |  degrees
 ------------------------------------------------------------------------------
    1 H                |   2 C                |   4 C                |   115.56
    1 H                |   2 C                |   6 C                |   122.07
    1 H                |   2 C                |  10 C                |   124.88
    4 C                |   2 C                |   6 C                |   110.25
    4 C                |   2 C                |  10 C                |    88.90
    6 C                |   2 C                |  10 C                |    88.35
    2 C                |   4 C                |   3 H                |   115.56
    2 C                |   4 C                |   8 C                |   110.25
    2 C                |   4 C                |  12 C                |    88.90
    3 H                |   4 C                |   8 C                |   122.07
    3 H                |   4 C                |  12 C                |   124.88
    8 C                |   4 C                |  12 C                |    88.35
    2 C                |   6 C                |   5 H                |   131.21
    2 C                |   6 C                |  14 C                |    90.65
    5 H                |   6 C                |  14 C                |   131.21
    4 C                |   8 C                |   7 H                |   131.21
    4 C                |   8 C                |  16 C                |    90.65
    7 H                |   8 C                |  16 C                |   131.21
    2 C                |  10 C                |   9 H                |   124.25
    2 C                |  10 C                |  12 C                |    91.10
    2 C                |  10 C                |  14 C                |    85.74
    9 H                |  10 C                |  12 C                |   128.34
    9 H                |  10 C                |  14 C                |   124.25
   12 C                |  10 C                |  14 C                |    91.10
    4 C                |  12 C                |  10 C                |    91.10
    4 C                |  12 C                |  11 H                |   124.25
    4 C                |  12 C                |  16 C                |    85.74
   10 C                |  12 C                |  11 H                |   128.34
   10 C                |  12 C                |  16 C                |    91.10
   11 H                |  12 C                |  16 C                |   124.25
    6 C                |  14 C                |  10 C                |    88.35
    6 C                |  14 C                |  13 H                |   122.07
    6 C                |  14 C                |  16 C                |   110.25
   10 C                |  14 C                |  13 H                |   124.88
   10 C                |  14 C                |  16 C                |    88.90
   13 H                |  14 C                |  16 C                |   115.56
    8 C                |  16 C                |  12 C                |    88.35
    8 C                |  16 C                |  14 C                |   110.25
    8 C                |  16 C                |  15 H                |   122.07
   12 C                |  16 C                |  14 C                |    88.90
   12 C                |  16 C                |  15 H                |   124.88
   14 C                |  16 C                |  15 H                |   115.56
 ------------------------------------------------------------------------------
                            number of included internuclear angles:         42
 ==============================================================================




 Task  times  cpu:    18276.8s     wall:    22520.5s
 Summary of allocated global arrays
-----------------------------------
  No active global arrays



                         GA Statistics for process    0
                         ------------------------------

       create   destroy   get      put      acc     scatter   gather  read&inc
calls: 3.22e+04 3.22e+04 3.71e+07 2.14e+07 3.63e+07 4934        0     7.55e+05 
number of processes/call 1.00e+00 1.00e+00 1.00e+00 1.00e+00 0.00e+00
bytes total:             9.19e+09 1.80e+10 3.90e+09 1.37e+08 0.00e+00 6.04e+06
bytes remote:            0.00e+00 0.00e+00 0.00e+00 0.00e+00 0.00e+00 0.00e+00
Max memory consumed for GA by this process: 6031720 bytes
MA_summarize_allocated_blocks: starting scan ...
MA_summarize_allocated_blocks: scan completed: 0 heap blocks, 0 stack blocks
MA usage statistics:

	allocation statistics:
					      heap	     stack
					      ----	     -----
	current number of blocks	         0	         0
	maximum number of blocks	        25	        48
	current total bytes		         0	         0
	maximum total bytes		     80104	  26347912
	maximum total K-bytes		        81	     26348
	maximum total M-bytes		         1	        27


                                NWChem Input Module
                                -------------------





                                     CITATION
                                     --------
                Please cite the following reference when publishing
                           results obtained with NWChem:

                 M. Valiev, E.J. Bylaska, N. Govind, K. Kowalski,
              T.P. Straatsma, H.J.J. van Dam, D. Wang, J. Nieplocha,
                        E. Apra, T.L. Windus, W.A. de Jong
                 "NWChem: a comprehensive and scalable open-source
                  solution for large scale molecular simulations"
                      Comput. Phys. Commun. 181, 1477 (2010)
                           doi:10.1016/j.cpc.2010.04.018

                                      AUTHORS
                                      -------
          E. Apra, E. J. Bylaska, W. A. de Jong, N. Govind, K. Kowalski,
       T. P. Straatsma, M. Valiev, H. J. J. van Dam, D. Wang, T. L. Windus,
        J. Hammond, J. Autschbach, K. Bhaskaran-Nair, J. Brabec, K. Lopata,
        S. Krishnamoorthy, W. Ma, M. Klemm, O. Villa, Y. Chen, V. Anisimov,
    F. Aquino, S. Hirata, M. T. Hackler, T. Risthaus, M. Malagoli, A. Marenich,
   A. Otero-de-la-Roza, J. Mullin, P. Nichols, R. Peverati, J. Pittner, Y. Zhao,
         P.-D. Fan, A. Fonari, R. J. Harrison, M. Dupuis, D. Silverstein,
    D. M. A. Smith, J. Nieplocha, V. Tipparaju, M. Krishnan, B. E. Van Kuiken,
        A. Vazquez-Mayagoitia, L. Jensen, M. Swart, Q. Wu, T. Van Voorhis,
     A. A. Auer, M. Nooijen, L. D. Crosby, E. Brown, G. Cisneros, G. I. Fann,
   H. Fruchtl, J. Garza, K. Hirao, R. A. Kendall, J. A. Nichols, K. Tsemekhman,
    K. Wolinski, J. Anchell, D. E. Bernholdt, P. Borowski, T. Clark, D. Clerc,
   H. Dachsel, M. J. O. Deegan, K. Dyall, D. Elwood, E. Glendening, M. Gutowski,
   A. C. Hess, J. Jaffe, B. G. Johnson, J. Ju, R. Kobayashi, R. Kutteh, Z. Lin,
   R. Littlefield, X. Long, B. Meng, T. Nakajima, S. Niu, L. Pollack, M. Rosing,
   K. Glaesemann, G. Sandrone, M. Stave, H. Taylor, G. Thomas, J. H. van Lenthe,
                               A. T. Wong, Z. Zhang.

 Total times  cpu:    18277.0s     wall:    22520.9s
