
                                 *****************
                                 * O   R   C   A *
                                 *****************

           --- An Ab Initio, DFT and Semiempirical electronic structure package ---

                  #######################################################
                  #                        -***-                        #
                  #  Department of molecular theory and spectroscopy    #
                  #              Directorship: Frank Neese              #
                  # Max Planck Institute for Chemical Energy Conversion #
                  #                  D-45470 Muelheim/Ruhr              #
                  #                       Germany                       #
                  #                                                     #
                  #                  All rights reserved                #
                  #                        -***-                        #
                  #######################################################


                         Program Version 4.0.0 -  RELEASE  -


 With contributions from (in alphabetic order):
   Daniel Aravena         : Magnetic Properties
   Michael Atanasov       : Ab Initio Ligand Field Theory
   Ute Becker             : Parallelization
   Martin Brehm           : Molecular dynamics
   Dmytro Bykov           : SCF Hessian
   Vijay G. Chilkuri      : MRCI spin determinant printing
   Dipayan Datta          : RHF DLPNO-CCSD density
   Achintya Kumar Dutta   : EOM-CC, STEOM-CC
   Dmitry Ganyushin       : Spin-Orbit,Spin-Spin,Magnetic field MRCI
   Yang Guo               : DLPNO-NEVPT2, CIM, IAO-localization
   Andreas Hansen         : Spin unrestricted coupled pair/coupled cluster methods
   Lee Huntington         : MR-EOM, pCC
   Robert Izsak           : Overlap fitted RIJCOSX, COSX-SCS-MP3, EOM
   Christian Kollmar      : KDIIS, OOCD, Brueckner-CCSD(T), CCSD density
   Simone Kossmann        : Meta GGA functionals, TD-DFT gradient, OOMP2, MP2 Hessian
   Martin Krupicka        : AUTO-CI
   Dagmar Lenk            : GEPOL surface
   Dimitrios Liakos       : Extrapolation schemes; parallel MDCI
   Dimitrios Manganas     : ROCIS; embedding schemes
   Dimitrios Pantazis     : SARC Basis sets
   Taras Petrenko         : DFT Hessian,TD-DFT gradient, ASA, ECA, R-Raman, ABS, FL, XAS/XES, NRVS
   Peter Pinski           : DLPNO-MP2
   Christoph Reimann      : Effective Core Potentials
   Marius Retegan         : Local ZFS, SOC
   Christoph Riplinger    : Optimizer, TS searches, QM/MM, DLPNO-CCSD(T), (RO)-DLPNO pert. Triples
   Tobias Risthaus        : Range-separated hybrids, TD-DFT gradient, RPA, STAB
   Michael Roemelt        : Restricted open shell CIS
   Masaaki Saitow         : Open-shell DLPNO
   Barbara Sandhoefer     : DKH picture change effects
   Kantharuban Sivalingam : CASSCF convergence, NEVPT2, FIC-MRCI
   Georgi Stoychev        : AutoAux
   Boris Wezisla          : Elementary symmetry handling
   Frank Wennmohs         : Technical directorship


 We gratefully acknowledge several colleagues who have allowed us to
 interface, adapt or use parts of their codes:
   Stefan Grimme, W. Hujo, H. Kruse,             : VdW corrections, initial TS optimization,
                  C. Bannwarth                     DFT functionals, gCP, sTDA/sTD-DF
   Ed Valeev                                     : LibInt (2-el integral package), F12 methods
   Garnet Chan, S. Sharma, J. Yang, R. Olivares  : DMRG
   Ulf Ekstrom                                   : XCFun DFT Library
   Mihaly Kallay                                 : mrcc  (arbitrary order and MRCC methods)
   Jiri Pittner, Ondrej Demel                    : Mk-CCSD
   Frank Weinhold                                : gennbo (NPA and NBO analysis)
   Christopher J. Cramer and Donald G. Truhlar   : smd solvation model


 Your calculation uses the libint2 library for the computation of 2-el integrals
 For citations please refer to: http://libint.valeyev.net

 This ORCA versions uses:
   CBLAS   interface :  Fast vector & matrix operations
   LAPACKE interface :  Fast linear algebra routines
   SCALAPACK package :  Parallel linear algebra routines




*****************************************
The coordinations will be read from file: scan.xyz
*****************************************


****
**** There are 9 structures found in the file
****
Your calculation utilizes the basis: cc-pVQZ 
       H, B-Ne : Obtained from the ccRepo (grant-hill.group.shef.ac.uk/ccrepo) Feb. 2017
                 T. H. Dunning, Jr., J. Chem. Phys. 90, 1007 (1989)
            He : Obtained from the ccRepo (grant-hill.group.shef.ac.uk/ccrepo) Feb. 2017
                 D. E. Woon, T. H. Dunning, Jr., J. Chem. Phys. 100, 2975 (1994)
  Li-Be, Na-Mg : Obtained from the ccRepo (grant-hill.group.shef.ac.uk/ccrepo) Feb. 2017
                 B. P. Prascher, D. E. Woon, K. A. Peterson, T. H. Dunning, Jr., A. K. Wilson, Theor. Chem. Acc. 128, 69 (2011)
         Al-Ar : Obtained from the ccRepo (grant-hill.group.shef.ac.uk/ccrepo) Feb. 2017
                 D. E. Woon, T. H. Dunning, Jr., J. Chem. Phys. 98, 1358 (1993)
            Ca : Obtained from the Peterson Research Group Website (tyr0.chem.wsu.edu/~kipeters) Feb. 2017
                 J. Koput, K. A. Peterson, J. Phys. Chem. 106, 9595 (2002)
         Sc-Zn : Obtained from the ccRepo (grant-hill.group.shef.ac.uk/ccrepo) Feb. 2017
                 N. B. Balabanov, K. A. Peterson, J. Chem. Phys. 123, 064107 (2005)
                 N. B. Balabanov, K. A. Peterson, J. Chem. Phys. 125, 074110 (2006)
         Ga-Kr : Obtained from the ccRepo (grant-hill.group.shef.ac.uk/ccrepo) Feb. 2017
                 A. K. Wilson, D. E. Woon, K. A. Peterson, T. H. Dunning, Jr., J. Chem. Phys. 110, 7667 (1999)

Your calculation utilizes the auxiliary basis: cc-pVQZ/C 
  Obtained from the EMSL Basis Set Exchange (bse.pnl.gov) Feb. 2017
  H-He, B-F, Al-Ar, Ga-Kr : F. Weigend, A. Kohn, C. Hattig, J. Chem. Phys. 116, 3175 (2002)
             Li-Be, Na-Mg : C. Haettig, Phys. Chem. Chem. Phys. 7, 59 (2005)
                       Ne : C. Haettig, Phys. Chem. Chem. Phys. 7, 59 (2005)
                            F. Weigend, A. Kohn, C. Hattig, J. Chem. Phys. 116, 3175 (2002)
                    Sc-Zn : D. H. Bross, J. G. Hill, H. J. Werner, K. A. Peterson, J. Chem. Phys. 139, 094302 (2013)

================================================================================
                                        WARNINGS
                       Please study these warnings very carefully!
================================================================================

Warning: TCutStore was < 0. Adjusted to Thresh (uncritical)

WARNING: MDCI localization requested with randomization but with NAttempts smaller than number of processes
  ===> : Setting NAttempts = Number of parallel processes!

WARNING: Post HF methods need fully converged wavefunctions
  ===> : Setting SCFConvForced true
         You can overwrite this default with %scf ConvForced false 


INFO   : the flag for use of LIBINT has been found!

================================================================================
                                       INPUT FILE
================================================================================
NAME = /home/vladimir/git/private/ORCA/C8H8/cubane/optimize/CC/DLPNO_CCSDT/cc-pVQZ/./cubane.inp
|  1> # ================================================================
|  2> # Orca input file for cubane
|  3> # ================================================================
|  4> ! DLPNO-CCSD(T) cc-pVQZ cc-pVQZ/C TightSCF
|  5> ! PAL4
|  6> 
|  7> %maxcore 2000
|  8> 
|  9> * xyzfile 0 1 scan.xyz
| 10> 
| 11>                          ****END OF INPUT****
================================================================================

                      *********************************
                      * Multiple XYZ Scan Calculation *
                      *********************************

Multiple XYZ scan settings:
    -> SCF surface will be mapped
    -> MDCI surface will be mapped

There are 9 structures to be calculated

         *************************************************************
                               MULTIPLE XYZ STEP   1
         *************************************************************
---------------------------------
CARTESIAN COORDINATES (ANGSTROEM)
---------------------------------
  H      1.408000    1.408000    1.408000
  H     -1.408000   -1.408000    1.408000
  H     -1.408000    1.408000   -1.408000
  H      1.408000   -1.408000   -1.408000
  H     -1.408000   -1.408000   -1.408000
  H      1.408000    1.408000   -1.408000
  H      1.408000   -1.408000    1.408000
  H     -1.408000    1.408000    1.408000
  C      0.781000    0.781000    0.781000
  C     -0.781000   -0.781000    0.781000
  C     -0.781000    0.781000   -0.781000
  C      0.781000   -0.781000   -0.781000
  C     -0.781000   -0.781000   -0.781000
  C      0.781000    0.781000   -0.781000
  C      0.781000   -0.781000    0.781000
  C     -0.781000    0.781000    0.781000

----------------------------
CARTESIAN COORDINATES (A.U.)
----------------------------
  NO LB      ZA    FRAG     MASS         X           Y           Z
   0 H     1.0000    0     1.008    2.660734    2.660734    2.660734
   1 H     1.0000    0     1.008   -2.660734   -2.660734    2.660734
   2 H     1.0000    0     1.008   -2.660734    2.660734   -2.660734
   3 H     1.0000    0     1.008    2.660734   -2.660734   -2.660734
   4 H     1.0000    0     1.008   -2.660734   -2.660734   -2.660734
   5 H     1.0000    0     1.008    2.660734    2.660734   -2.660734
   6 H     1.0000    0     1.008    2.660734   -2.660734    2.660734
   7 H     1.0000    0     1.008   -2.660734    2.660734    2.660734
   8 C     6.0000    0    12.011    1.475876    1.475876    1.475876
   9 C     6.0000    0    12.011   -1.475876   -1.475876    1.475876
  10 C     6.0000    0    12.011   -1.475876    1.475876   -1.475876
  11 C     6.0000    0    12.011    1.475876   -1.475876   -1.475876
  12 C     6.0000    0    12.011   -1.475876   -1.475876   -1.475876
  13 C     6.0000    0    12.011    1.475876    1.475876   -1.475876
  14 C     6.0000    0    12.011    1.475876   -1.475876    1.475876
  15 C     6.0000    0    12.011   -1.475876    1.475876    1.475876

--------------------------------
INTERNAL COORDINATES (ANGSTROEM)
--------------------------------
 H      0   0   0     0.000000000000     0.00000000     0.00000000
 H      1   0   0     3.982425391643     0.00000000     0.00000000
 H      1   2   0     3.982425391643    60.00000000     0.00000000
 H      1   2   3     3.982425391643    60.00000000   289.47122063
 H      2   1   3     2.816000000000    90.00000000    35.26438968
 H      1   2   3     2.816000000000    90.00000000   324.73561032
 H      1   2   3     2.816000000000    45.00000000   234.73561032
 H      1   2   3     2.816000000000    45.00000000    54.73561032
 C      1   2   3     1.085995856346    35.26438968   324.73561032
 C      2   1   3     1.085995856346    35.26438968    35.26438968
 C      3   1   2     1.085995856346    35.26438968   324.73561032
 C      4   1   2     1.085995856346    35.26438968    35.26438968
 C      5   2   1     1.085995856346    54.73561032     0.00000000
 C      6   1   2     1.085995856346    54.73561032     0.00000000
 C      7   1   2     1.085995856346    54.73561032    45.00000000
 C      8   1   2     1.085995856346    54.73561032   315.00000000

---------------------------
INTERNAL COORDINATES (A.U.)
---------------------------
 H      0   0   0     0.000000000000     0.00000000     0.00000000
 H      1   0   0     7.525693338979     0.00000000     0.00000000
 H      1   2   0     7.525693338979    60.00000000     0.00000000
 H      1   2   3     7.525693338979    60.00000000   289.47122063
 H      2   1   3     5.321468793122    90.00000000    35.26438968
 H      1   2   3     5.321468793122    90.00000000   324.73561032
 H      1   2   3     5.321468793122    45.00000000   234.73561032
 H      1   2   3     5.321468793122    45.00000000    54.73561032
 C      1   2   3     2.052234751067    35.26438968   324.73561032
 C      2   1   3     2.052234751067    35.26438968    35.26438968
 C      3   1   2     2.052234751067    35.26438968   324.73561032
 C      4   1   2     2.052234751067    35.26438968    35.26438968
 C      5   2   1     2.052234751067    54.73561032     0.00000000
 C      6   1   2     2.052234751067    54.73561032     0.00000000
 C      7   1   2     2.052234751067    54.73561032    45.00000000
 C      8   1   2     2.052234751067    54.73561032   315.00000000

---------------------
BASIS SET INFORMATION
---------------------
There are 2 groups of distinct atoms

 Group   1 Type H   : 6s3p2d1f contracted to 4s3p2d1f pattern {3111/111/11/1}
 Group   2 Type C   : 21s6p3d2f1g contracted to 5s4p3d2f1g pattern {99111/3111/111/11/1}

Atom   0H    basis set group =>   1
Atom   1H    basis set group =>   1
Atom   2H    basis set group =>   1
Atom   3H    basis set group =>   1
Atom   4H    basis set group =>   1
Atom   5H    basis set group =>   1
Atom   6H    basis set group =>   1
Atom   7H    basis set group =>   1
Atom   8C    basis set group =>   2
Atom   9C    basis set group =>   2
Atom  10C    basis set group =>   2
Atom  11C    basis set group =>   2
Atom  12C    basis set group =>   2
Atom  13C    basis set group =>   2
Atom  14C    basis set group =>   2
Atom  15C    basis set group =>   2

INFORMATION: There is an auxiliary basis set but the global RI flag is NOT set

-------------------------------
AUXILIARY BASIS SET INFORMATION
-------------------------------
There are 2 groups of distinct atoms

 Group   1 Type H   : 5s4p3d2f1g contracted to 5s4p3d2f1g pattern {11111/1111/111/11/1}
 Group   2 Type C   : 8s7p6d5f3g1h contracted to 8s7p6d5f3g1h pattern {11111111/1111111/111111/11111/111/1}

Atom   0H    basis set group =>   1
Atom   1H    basis set group =>   1
Atom   2H    basis set group =>   1
Atom   3H    basis set group =>   1
Atom   4H    basis set group =>   1
Atom   5H    basis set group =>   1
Atom   6H    basis set group =>   1
Atom   7H    basis set group =>   1
Atom   8C    basis set group =>   2
Atom   9C    basis set group =>   2
Atom  10C    basis set group =>   2
Atom  11C    basis set group =>   2
Atom  12C    basis set group =>   2
Atom  13C    basis set group =>   2
Atom  14C    basis set group =>   2
Atom  15C    basis set group =>   2


           ************************************************************
           *        Program running with 4 parallel MPI-processes     *
           *              working on a common directory               *
           ************************************************************
------------------------------------------------------------------------------
                           ORCA GTO INTEGRAL CALCULATION
------------------------------------------------------------------------------

                         BASIS SET STATISTICS AND STARTUP INFO

 # of primitive gaussian shells          ...  360
 # of primitive gaussian functions       ...  872
 # of contracted shells                  ...  200
 # of contracted basis functions         ...  680
 Highest angular momentum                ...    4
 Maximum contraction depth               ...    9
 Integral package used                   ... LIBINT
 Integral threshhold            Thresh   ...  2.500e-11
 Primitive cut-off              TCut     ...  2.500e-12


------------------------------ INTEGRAL EVALUATION ----------------------------


 * One electron integrals 
 Pre-screening matrix                    ... done
 Shell pair data                         ... done (   0.006 sec)



           ************************************************************
           *        Program running with 4 parallel MPI-processes     *
           *              working on a common directory               *
           ************************************************************
-------------------------------------------------------------------------------
                                 ORCA SCF
-------------------------------------------------------------------------------

------------
SCF SETTINGS
------------
Hamiltonian:
 Ab initio Hamiltonian  Method          .... Hartree-Fock(GTOs)


General Settings:
 Integral files         IntName         .... /home/vladimir/git/private/ORCA/C8H8/cubane/optimize/CC/DLPNO_CCSDT/cc-pVQZ/./cubane
 Hartree-Fock type      HFTyp           .... RHF
 Total Charge           Charge          ....    0
 Multiplicity           Mult            ....    1
 Number of Electrons    NEL             ....   56
 Basis Dimension        Dim             ....  680
 Nuclear Repulsion      ENuc            ....    368.7691697064 Eh

Convergence Acceleration:
 DIIS                   CNVDIIS         .... on
   Start iteration      DIISMaxIt       ....    12
   Startup error        DIISStart       ....  0.200000
   # of expansion vecs  DIISMaxEq       ....     5
   Bias factor          DIISBfac        ....   1.050
   Max. coefficient     DIISMaxC        ....  10.000
 Newton-Raphson         CNVNR           .... off
 SOSCF                  CNVSOSCF        .... on
   Start iteration      SOSCFMaxIt      ....   150
   Startup grad/error   SOSCFStart      ....  0.003300
 Level Shifting         CNVShift        .... on
   Level shift para.    LevelShift      ....    0.2500
   Turn off err/grad.   ShiftErr        ....    0.0010
 Zerner damping         CNVZerner       .... off
 Static damping         CNVDamp         .... on
   Fraction old density DampFac         ....    0.7000
   Max. Damping (<1)    DampMax         ....    0.9800
   Min. Damping (>=0)   DampMin         ....    0.0000
   Turn off err/grad.   DampErr         ....    0.1000
 Fernandez-Rico         CNVRico         .... off

SCF Procedure:
 Maximum # iterations   MaxIter         ....   125
 SCF integral mode      SCFMode         .... Direct
   Integral package                     .... LIBINT
 Reset frequeny         DirectResetFreq ....    20
 Integral Threshold     Thresh          ....  2.500e-11 Eh
 Primitive CutOff       TCut            ....  2.500e-12 Eh

Convergence Tolerance:
 Convergence Check Mode ConvCheckMode   .... Total+1el-Energy
 Convergence forced     ConvForced      .... 1
 Energy Change          TolE            ....  1.000e-08 Eh
 1-El. energy change                    ....  1.000e-05 Eh
 Orbital Gradient       TolG            ....  1.000e-05
 Orbital Rotation angle TolX            ....  1.000e-05
 DIIS Error             TolErr          ....  5.000e-07


Diagonalization of the overlap matrix:
Smallest eigenvalue                        ... 1.218e-06
Time for diagonalization                   ...    0.323 sec
Threshold for overlap eigenvalues          ... 1.000e-08
Number of eigenvalues below threshold      ... 0
Time for construction of square roots      ...    0.045 sec
Total time needed                          ...    0.371 sec

-------------------
DFT GRID GENERATION
-------------------

General Integration Accuracy     IntAcc      ...  4.340
Radial Grid Type                 RadialGrid  ... Gauss-Chebyshev
Angular Grid (max. acc.)         AngularGrid ... Lebedev-110
Angular grid pruning method      GridPruning ... 3 (G Style)
Weight generation scheme         WeightScheme... Becke
Basis function cutoff            BFCut       ...    1.0000e-11
Integration weight cutoff        WCut        ...    1.0000e-14
Grids for H and He will be reduced by one unit

# of grid points (after initial pruning)     ...  19600 (   0.0 sec)
# of grid points (after weights+screening)   ...  17576 (   0.0 sec)
nearest neighbour list constructed           ...    0.0 sec
Grid point re-assignment to atoms done       ...    0.0 sec
Grid point division into batches done        ...    0.0 sec
Reduced shell lists constructed in    0.1 sec

Total number of grid points                  ...    17576
Total number of batches                      ...      288
Average number of points per batch           ...       61
Average number of grid points per atom       ...     1098
Average number of shells per batch           ...   112.52 (56.26%)
Average number of basis functions per batch  ...   376.63 (55.39%)
Average number of large shells per batch     ...    82.29 (73.13%)
Average number of large basis fcns per batch ...   262.10 (69.59%)
Maximum spatial batch extension              ...  16.86, 17.22, 18.13 au
Average spatial batch extension              ...   1.39,  1.38,  1.42 au

Time for grid setup =    0.104 sec

------------------------------
INITIAL GUESS: MODEL POTENTIAL
------------------------------
Loading Hartree-Fock densities                     ... done
Calculating cut-offs                               ... done
Setting up the integral package                    ... done
Initializing the effective Hamiltonian             ... done
Starting the Coulomb interaction                   ... done (   0.2 sec)
Reading the grid                                   ... done
Mapping shells                                     ... done
Starting the XC term evaluation                    ... done (   0.3 sec)
Transforming the Hamiltonian                       ... done (   0.1 sec)
Diagonalizing the Hamiltonian                      ... done (   0.2 sec)
Back transforming the eigenvectors                 ... done (   0.0 sec)
Now organizing SCF variables                       ... done
                      ------------------
                      INITIAL GUESS DONE (   0.8 sec)
                      ------------------
--------------
SCF ITERATIONS
--------------
ITER       Energy         Delta-E        Max-DP      RMS-DP      [F,P]     Damp
               ***  Starting incremental Fock matrix formation  ***
  0   -307.1719869918   0.000000000000 0.05698266  0.00081594  0.1505470 0.7000
  1   -307.2896196736  -0.117632681840 0.05142175  0.00066030  0.1036205 0.7000
                               ***Turning on DIIS***
  2   -307.3579402160  -0.068320542390 0.12648631  0.00159131  0.0777090 0.0000
  3   -306.7260604093   0.631879806731 0.00845845  0.00019908  0.0277875 0.0000
  4   -307.6202218365  -0.894161427203 0.00287781  0.00006709  0.0046344 0.0000
                      *** Initiating the SOSCF procedure ***
                           *** Shutting down DIIS ***
                      *** Re-Reading the Fockian *** 
                      *** Removing any level shift *** 
ITER      Energy       Delta-E        Grad      Rot      Max-DP    RMS-DP
  5   -307.52490390   0.0953179409  0.002285  0.002285  0.002176  0.000045
               *** Restarting incremental Fock matrix formation ***
  6   -307.50349270   0.0214111980  0.000573  0.000698  0.003013  0.000044
  7   -307.50350659  -0.0000138886  0.000189  0.000419  0.001531  0.000020
  8   -307.50350869  -0.0000021009  0.000022  0.000027  0.000136  0.000002
  9   -307.50350871  -0.0000000242  0.000021  0.000013  0.000030  0.000000
                  ***Gradient check signals convergence***
              ***Rediagonalizing the Fockian in SOSCF/NRSCF***

               *****************************************************
               *                     SUCCESS                       *
               *           SCF CONVERGED AFTER  10 CYCLES          *
               *****************************************************


----------------
TOTAL SCF ENERGY
----------------

Total Energy       :         -307.50350872 Eh           -8367.59587 eV

Components:
Nuclear Repulsion  :          368.76916971 Eh           10034.71926 eV
Electronic Energy  :         -676.27267842 Eh          -18402.31514 eV
One Electron Energy:        -1146.91733882 Eh          -31209.20743 eV
Two Electron Energy:          470.64466040 Eh           12806.89230 eV

Virial components:
Potential Energy   :         -614.79490363 Eh          -16729.41983 eV
Kinetic Energy     :          307.29139491 Eh            8361.82396 eV
Virial Ratio       :            2.00069027


---------------
SCF CONVERGENCE
---------------

  Last Energy change         ...   -6.3632e-09  Tolerance :   1.0000e-08
  Last MAX-Density change    ...    1.9556e-05  Tolerance :   1.0000e-07
  Last RMS-Density change    ...    2.8540e-07  Tolerance :   5.0000e-09
  Last Orbital Gradient      ...    1.6813e-06  Tolerance :   1.0000e-05
  Last Orbital Rotation      ...    1.9433e-06  Tolerance :   1.0000e-05

             **** THE GBW FILE WAS UPDATED (/home/vladimir/git/private/ORCA/C8H8/cubane/optimize/CC/DLPNO_CCSDT/cc-pVQZ/./cubane.gbw) ****
             **** DENSITY FILE WAS UPDATED (/home/vladimir/git/private/ORCA/C8H8/cubane/optimize/CC/DLPNO_CCSDT/cc-pVQZ/./cubane.scfp.tmp) ****
             **** ENERGY FILE WAS UPDATED (/home/vladimir/git/private/ORCA/C8H8/cubane/optimize/CC/DLPNO_CCSDT/cc-pVQZ/./cubane.en.tmp) ****
----------------
ORBITAL ENERGIES
----------------

  NO   OCC          E(Eh)            E(eV) 
   0   2.0000     -11.218717      -305.2768 
   1   2.0000     -11.218209      -305.2630 
   2   2.0000     -11.218209      -305.2630 
   3   2.0000     -11.218209      -305.2630 
   4   2.0000     -11.217689      -305.2488 
   5   2.0000     -11.217689      -305.2488 
   6   2.0000     -11.217689      -305.2488 
   7   2.0000     -11.217155      -305.2343 
   8   2.0000      -1.247928       -33.9578 
   9   2.0000      -0.980003       -26.6672 
  10   2.0000      -0.980003       -26.6672 
  11   2.0000      -0.980003       -26.6672 
  12   2.0000      -0.767406       -20.8822 
  13   2.0000      -0.767406       -20.8822 
  14   2.0000      -0.767406       -20.8822 
  15   2.0000      -0.711439       -19.3592 
  16   2.0000      -0.640183       -17.4203 
  17   2.0000      -0.581808       -15.8318 
  18   2.0000      -0.581808       -15.8318 
  19   2.0000      -0.580638       -15.8000 
  20   2.0000      -0.580638       -15.8000 
  21   2.0000      -0.580638       -15.8000 
  22   2.0000      -0.391273       -10.6471 
  23   2.0000      -0.391273       -10.6471 
  24   2.0000      -0.391273       -10.6471 
  25   2.0000      -0.383109       -10.4249 
  26   2.0000      -0.383109       -10.4249 
  27   2.0000      -0.383109       -10.4249 
  28   0.0000       0.116135         3.1602 
  29   0.0000       0.131394         3.5754 
  30   0.0000       0.131394         3.5754 
  31   0.0000       0.131394         3.5754 
  32   0.0000       0.161039         4.3821 
  33   0.0000       0.161039         4.3821 
  34   0.0000       0.161039         4.3821 
  35   0.0000       0.180110         4.9010 
  36   0.0000       0.197570         5.3762 
  37   0.0000       0.197570         5.3762 
  38   0.0000       0.197570         5.3762 
  39   0.0000       0.272939         7.4270 
  40   0.0000       0.272939         7.4270 
  41   0.0000       0.300497         8.1769 
  42   0.0000       0.300497         8.1769 
  43   0.0000       0.300497         8.1770 
  44   0.0000       0.322535         8.7766 
  45   0.0000       0.322535         8.7766 
  46   0.0000       0.322535         8.7766 
  47   0.0000       0.323316         8.7979 
  48   0.0000       0.323316         8.7979 
  49   0.0000       0.323316         8.7979 
  50   0.0000       0.335187         9.1209 
  51   0.0000       0.395825        10.7709 
  52   0.0000       0.395825        10.7709 
  53   0.0000       0.395825        10.7709 
  54   0.0000       0.419093        11.4041 
  55   0.0000       0.433053        11.7840 
  56   0.0000       0.433053        11.7840 
  57   0.0000       0.435865        11.8605 
  58   0.0000       0.464601        12.6424 
  59   0.0000       0.464601        12.6424 
  60   0.0000       0.464601        12.6424 
  61   0.0000       0.486642        13.2422 
  62   0.0000       0.486642        13.2422 
  63   0.0000       0.486642        13.2422 
  64   0.0000       0.510063        13.8795 
  65   0.0000       0.510063        13.8795 
  66   0.0000       0.510063        13.8795 
  67   0.0000       0.536104        14.5881 
  68   0.0000       0.536104        14.5881 
  69   0.0000       0.536104        14.5881 
  70   0.0000       0.582940        15.8626 
  71   0.0000       0.582940        15.8626 
  72   0.0000       0.582941        15.8626 
  73   0.0000       0.595331        16.1998 
  74   0.0000       0.595331        16.1998 
  75   0.0000       0.632023        17.1982 
  76   0.0000       0.632023        17.1982 
  77   0.0000       0.742268        20.1981 
  78   0.0000       0.742268        20.1981 
  79   0.0000       0.742268        20.1981 
  80   0.0000       0.742949        20.2167 
  81   0.0000       0.742949        20.2167 
  82   0.0000       0.742949        20.2167 
  83   0.0000       0.760575        20.6963 
  84   0.0000       0.842413        22.9232 
  85   0.0000       0.855477        23.2787 
  86   0.0000       0.855477        23.2787 
  87   0.0000       0.855478        23.2787 
  88   0.0000       0.864860        23.5340 
  89   0.0000       0.864860        23.5340 
  90   0.0000       0.888979        24.1904 
  91   0.0000       0.888979        24.1904 
  92   0.0000       0.888979        24.1904 
  93   0.0000       0.896610        24.3980 
  94   0.0000       0.896610        24.3980 
  95   0.0000       0.896610        24.3980 
  96   0.0000       0.923994        25.1432 
  97   0.0000       0.923994        25.1432 
  98   0.0000       0.923995        25.1432 
  99   0.0000       0.935115        25.4458 
 100   0.0000       0.935115        25.4458 
 101   0.0000       0.935115        25.4458 
 102   0.0000       0.956006        26.0142 
 103   0.0000       1.048564        28.5329 
 104   0.0000       1.048564        28.5329 
 105   0.0000       1.048564        28.5329 
 106   0.0000       1.049722        28.5644 
 107   0.0000       1.057574        28.7780 
 108   0.0000       1.060087        28.8464 
 109   0.0000       1.060087        28.8464 
 110   0.0000       1.060274        28.8515 
 111   0.0000       1.060274        28.8515 
 112   0.0000       1.060274        28.8515 
 113   0.0000       1.072511        29.1845 
 114   0.0000       1.072511        29.1845 
 115   0.0000       1.072511        29.1845 
 116   0.0000       1.083900        29.4944 
 117   0.0000       1.083900        29.4944 
 118   0.0000       1.083900        29.4944 
 119   0.0000       1.099257        29.9123 
 120   0.0000       1.099257        29.9123 
 121   0.0000       1.114652        30.3312 
 122   0.0000       1.148204        31.2442 
 123   0.0000       1.148204        31.2442 
 124   0.0000       1.148204        31.2442 
 125   0.0000       1.171370        31.8746 
 126   0.0000       1.171370        31.8746 
 127   0.0000       1.171370        31.8746 
 128   0.0000       1.224224        33.3128 
 129   0.0000       1.224224        33.3128 
 130   0.0000       1.224224        33.3128 
 131   0.0000       1.284696        34.9584 
 132   0.0000       1.284696        34.9584 
 133   0.0000       1.284696        34.9584 
 134   0.0000       1.296591        35.2820 
 135   0.0000       1.296591        35.2820 
 136   0.0000       1.325656        36.0729 
 137   0.0000       1.325656        36.0729 
 138   0.0000       1.325656        36.0729 
 139   0.0000       1.408814        38.3358 
 140   0.0000       1.462125        39.7864 
 141   0.0000       1.475814        40.1589 
 142   0.0000       1.475814        40.1589 
 143   0.0000       1.475814        40.1590 
 144   0.0000       1.479289        40.2535 
 145   0.0000       1.479289        40.2535 
 146   0.0000       1.479289        40.2535 
 147   0.0000       1.568474        42.6804 
 148   0.0000       1.568474        42.6804 
 149   0.0000       1.574319        42.8394 
 150   0.0000       1.574319        42.8394 
 151   0.0000       1.574319        42.8394 
 152   0.0000       1.698955        46.2309 
 153   0.0000       1.698955        46.2309 
 154   0.0000       1.774140        48.2768 
 155   0.0000       1.774140        48.2768 
 156   0.0000       1.774140        48.2768 
 157   0.0000       1.779964        48.4353 
 158   0.0000       1.846538        50.2469 
 159   0.0000       1.846538        50.2469 
 160   0.0000       1.846538        50.2469 
 161   0.0000       1.861304        50.6487 
 162   0.0000       1.877234        51.0821 
 163   0.0000       1.877234        51.0821 
 164   0.0000       1.877234        51.0821 
 165   0.0000       1.890631        51.4467 
 166   0.0000       1.890631        51.4467 
 167   0.0000       1.904833        51.8331 
 168   0.0000       1.904833        51.8331 
 169   0.0000       1.904833        51.8331 
 170   0.0000       2.026603        55.1467 
 171   0.0000       2.026603        55.1467 
 172   0.0000       2.026603        55.1467 
 173   0.0000       2.042369        55.5757 
 174   0.0000       2.053257        55.8720 
 175   0.0000       2.053257        55.8720 
 176   0.0000       2.053257        55.8720 
 177   0.0000       2.054986        55.9190 
 178   0.0000       2.054986        55.9190 
 179   0.0000       2.061397        56.0935 
 180   0.0000       2.061397        56.0935 
 181   0.0000       2.061397        56.0935 
 182   0.0000       2.062889        56.1341 
 183   0.0000       2.100295        57.1519 
 184   0.0000       2.100295        57.1519 
 185   0.0000       2.100296        57.1520 
 186   0.0000       2.110613        57.4327 
 187   0.0000       2.110613        57.4327 
 188   0.0000       2.110613        57.4327 
 189   0.0000       2.153479        58.5991 
 190   0.0000       2.153479        58.5991 
 191   0.0000       2.153479        58.5991 
 192   0.0000       2.188549        59.5535 
 193   0.0000       2.188549        59.5535 
 194   0.0000       2.254177        61.3393 
 195   0.0000       2.254177        61.3393 
 196   0.0000       2.254178        61.3393 
 197   0.0000       2.256250        61.3957 
 198   0.0000       2.256250        61.3957 
 199   0.0000       2.256250        61.3957 
 200   0.0000       2.361280        64.2537 
 201   0.0000       2.361280        64.2537 
 202   0.0000       2.361280        64.2537 
 203   0.0000       2.362440        64.2853 
 204   0.0000       2.384104        64.8748 
 205   0.0000       2.384104        64.8748 
 206   0.0000       2.406835        65.4933 
 207   0.0000       2.406835        65.4933 
 208   0.0000       2.406835        65.4933 
 209   0.0000       2.409769        65.5731 
 210   0.0000       2.409769        65.5732 
 211   0.0000       2.421303        65.8870 
 212   0.0000       2.421303        65.8870 
 213   0.0000       2.421303        65.8870 
 214   0.0000       2.489989        67.7560 
 215   0.0000       2.489989        67.7560 
 216   0.0000       2.489989        67.7560 
 217   0.0000       2.556490        69.5656 
 218   0.0000       2.594985        70.6131 
 219   0.0000       2.594985        70.6131 
 220   0.0000       2.600406        70.7606 
 221   0.0000       2.600406        70.7606 
 222   0.0000       2.600406        70.7606 
 223   0.0000       2.604906        70.8831 
 224   0.0000       2.604906        70.8831 
 225   0.0000       2.604906        70.8831 
 226   0.0000       2.609738        71.0146 
 227   0.0000       2.609739        71.0146 
 228   0.0000       2.609739        71.0146 
 229   0.0000       2.659540        72.3698 
 230   0.0000       2.722058        74.0710 
 231   0.0000       2.722058        74.0710 
 232   0.0000       2.722058        74.0710 
 233   0.0000       2.729028        74.2606 
 234   0.0000       2.729028        74.2606 
 235   0.0000       2.729028        74.2606 
 236   0.0000       2.789655        75.9104 
 237   0.0000       2.789655        75.9104 
 238   0.0000       2.789655        75.9104 
 239   0.0000       2.819865        76.7324 
 240   0.0000       2.819865        76.7324 
 241   0.0000       2.819865        76.7324 
 242   0.0000       2.831641        77.0529 
 243   0.0000       2.906550        79.0912 
 244   0.0000       2.906550        79.0912 
 245   0.0000       2.906550        79.0912 
 246   0.0000       2.920208        79.4629 
 247   0.0000       2.920208        79.4629 
 248   0.0000       2.920208        79.4629 
 249   0.0000       2.928018        79.6754 
 250   0.0000       2.928018        79.6754 
 251   0.0000       2.928018        79.6754 
 252   0.0000       2.991593        81.4054 
 253   0.0000       2.991593        81.4054 
 254   0.0000       3.003980        81.7425 
 255   0.0000       3.029346        82.4327 
 256   0.0000       3.029346        82.4327 
 257   0.0000       3.029347        82.4327 
 258   0.0000       3.036334        82.6229 
 259   0.0000       3.036334        82.6229 
 260   0.0000       3.101742        84.4027 
 261   0.0000       3.112177        84.6866 
 262   0.0000       3.112177        84.6866 
 263   0.0000       3.112177        84.6866 
 264   0.0000       3.158149        85.9376 
 265   0.0000       3.158149        85.9376 
 266   0.0000       3.169047        86.2342 
 267   0.0000       3.169047        86.2342 
 268   0.0000       3.169047        86.2342 
 269   0.0000       3.169482        86.2460 
 270   0.0000       3.169482        86.2460 
 271   0.0000       3.169482        86.2460 
 272   0.0000       3.176928        86.4486 
 273   0.0000       3.176928        86.4486 
 274   0.0000       3.214713        87.4768 
 275   0.0000       3.214713        87.4768 
 276   0.0000       3.214713        87.4768 
 277   0.0000       3.275365        89.1272 
 278   0.0000       3.275365        89.1272 
 279   0.0000       3.275365        89.1272 
 280   0.0000       3.291029        89.5535 
 281   0.0000       3.291029        89.5535 
 282   0.0000       3.291029        89.5535 
 283   0.0000       3.311023        90.0975 
 284   0.0000       3.311023        90.0975 
 285   0.0000       3.311023        90.0975 
 286   0.0000       3.312551        90.1391 
 287   0.0000       3.346684        91.0679 
 288   0.0000       3.346684        91.0679 
 289   0.0000       3.346684        91.0679 
 290   0.0000       3.368049        91.6493 
 291   0.0000       3.563452        96.9665 
 292   0.0000       3.567309        97.0714 
 293   0.0000       3.567309        97.0714 
 294   0.0000       3.567309        97.0714 
 295   0.0000       3.605198        98.1024 
 296   0.0000       3.605198        98.1024 
 297   0.0000       3.605198        98.1024 
 298   0.0000       3.662853        99.6713 
 299   0.0000       3.662853        99.6713 
 300   0.0000       3.662853        99.6713 
 301   0.0000       3.702385       100.7470 
 302   0.0000       3.702385       100.7470 
 303   0.0000       3.702385       100.7470 
 304   0.0000       3.716547       101.1324 
 305   0.0000       3.728755       101.4646 
 306   0.0000       3.728755       101.4646 
 307   0.0000       3.773407       102.6796 
 308   0.0000       3.773407       102.6796 
 309   0.0000       3.773407       102.6796 
 310   0.0000       3.798884       103.3729 
 311   0.0000       3.798884       103.3729 
 312   0.0000       3.949228       107.4639 
 313   0.0000       3.949228       107.4639 
 314   0.0000       4.001904       108.8973 
 315   0.0000       4.001904       108.8973 
 316   0.0000       4.001904       108.8973 
 317   0.0000       4.019295       109.3706 
 318   0.0000       4.019295       109.3706 
 319   0.0000       4.019295       109.3706 
 320   0.0000       4.054427       110.3266 
 321   0.0000       4.054427       110.3266 
 322   0.0000       4.054427       110.3266 
 323   0.0000       4.089254       111.2743 
 324   0.0000       4.122498       112.1789 
 325   0.0000       4.122498       112.1789 
 326   0.0000       4.122498       112.1789 
 327   0.0000       4.176074       113.6367 
 328   0.0000       4.176074       113.6367 
 329   0.0000       4.176074       113.6367 
 330   0.0000       4.213582       114.6574 
 331   0.0000       4.213582       114.6574 
 332   0.0000       4.221344       114.8686 
 333   0.0000       4.221344       114.8686 
 334   0.0000       4.221344       114.8686 
 335   0.0000       4.324980       117.6887 
 336   0.0000       4.385560       119.3371 
 337   0.0000       4.385560       119.3371 
 338   0.0000       4.385560       119.3371 
 339   0.0000       4.393395       119.5504 
 340   0.0000       4.393395       119.5504 
 341   0.0000       4.393395       119.5504 
 342   0.0000       4.505786       122.6087 
 343   0.0000       4.505786       122.6087 
 344   0.0000       4.505786       122.6087 
 345   0.0000       4.671368       127.1144 
 346   0.0000       4.671368       127.1144 
 347   0.0000       4.785851       130.2296 
 348   0.0000       4.785851       130.2296 
 349   0.0000       4.865130       132.3869 
 350   0.0000       4.865130       132.3869 
 351   0.0000       4.865130       132.3869 
 352   0.0000       4.903478       133.4304 
 353   0.0000       5.024702       136.7291 
 354   0.0000       5.061357       137.7265 
 355   0.0000       5.061357       137.7265 
 356   0.0000       5.099619       138.7677 
 357   0.0000       5.099619       138.7677 
 358   0.0000       5.099619       138.7677 
 359   0.0000       5.256746       143.0433 
 360   0.0000       5.265956       143.2939 
 361   0.0000       5.265956       143.2939 
 362   0.0000       5.265956       143.2939 
 363   0.0000       5.476730       149.0294 
 364   0.0000       5.476730       149.0294 
 365   0.0000       5.476730       149.0294 
 366   0.0000       5.631526       153.2416 
 367   0.0000       5.631526       153.2416 
 368   0.0000       5.631526       153.2416 
 369   0.0000       5.669820       154.2836 
 370   0.0000       5.669820       154.2836 
 371   0.0000       5.669820       154.2836 
 372   0.0000       5.695453       154.9812 
 373   0.0000       5.695453       154.9812 
 374   0.0000       5.695454       154.9812 
 375   0.0000       5.717100       155.5702 
 376   0.0000       5.717100       155.5702 
 377   0.0000       5.815206       158.2398 
 378   0.0000       5.822379       158.4350 
 379   0.0000       5.822379       158.4350 
 380   0.0000       5.822379       158.4350 
 381   0.0000       5.835471       158.7912 
 382   0.0000       5.835471       158.7912 
 383   0.0000       5.835471       158.7912 
 384   0.0000       5.872638       159.8026 
 385   0.0000       5.872638       159.8026 
 386   0.0000       5.872638       159.8026 
 387   0.0000       5.885825       160.1614 
 388   0.0000       5.971826       162.5016 
 389   0.0000       5.971826       162.5016 
 390   0.0000       5.971826       162.5016 
 391   0.0000       6.032345       164.1485 
 392   0.0000       6.032345       164.1485 
 393   0.0000       6.032345       164.1485 
 394   0.0000       6.215102       169.1215 
 395   0.0000       6.215102       169.1215 
 396   0.0000       6.215102       169.1215 
 397   0.0000       6.248333       170.0258 
 398   0.0000       6.248333       170.0258 
 399   0.0000       6.248333       170.0258 
 400   0.0000       6.251241       170.1049 
 401   0.0000       6.270111       170.6184 
 402   0.0000       6.270111       170.6184 
 403   0.0000       6.291150       171.1909 
 404   0.0000       6.291150       171.1909 
 405   0.0000       6.291150       171.1909 
 406   0.0000       6.301995       171.4860 
 407   0.0000       6.329728       172.2406 
 408   0.0000       6.371847       173.3868 
 409   0.0000       6.391851       173.9311 
 410   0.0000       6.391851       173.9311 
 411   0.0000       6.391851       173.9311 
 412   0.0000       6.397137       174.0749 
 413   0.0000       6.397137       174.0749 
 414   0.0000       6.399325       174.1345 
 415   0.0000       6.399325       174.1345 
 416   0.0000       6.418928       174.6679 
 417   0.0000       6.418928       174.6679 
 418   0.0000       6.418928       174.6679 
 419   0.0000       6.425946       174.8589 
 420   0.0000       6.425946       174.8589 
 421   0.0000       6.425946       174.8589 
 422   0.0000       6.451848       175.5637 
 423   0.0000       6.451848       175.5637 
 424   0.0000       6.451848       175.5637 
 425   0.0000       6.454900       175.6468 
 426   0.0000       6.454900       175.6468 
 427   0.0000       6.454900       175.6468 
 428   0.0000       6.480639       176.3472 
 429   0.0000       6.517529       177.3510 
 430   0.0000       6.517529       177.3510 
 431   0.0000       6.524506       177.5408 
 432   0.0000       6.524506       177.5408 
 433   0.0000       6.524506       177.5408 
 434   0.0000       6.608042       179.8140 
 435   0.0000       6.608042       179.8140 
 436   0.0000       6.608042       179.8140 
 437   0.0000       6.661685       181.2737 
 438   0.0000       6.661685       181.2737 
 439   0.0000       6.661686       181.2737 
 440   0.0000       6.686865       181.9588 
 441   0.0000       6.686865       181.9588 
 442   0.0000       6.686865       181.9588 
 443   0.0000       6.727839       183.0738 
 444   0.0000       6.727839       183.0738 
 445   0.0000       6.727839       183.0738 
 446   0.0000       6.729378       183.1157 
 447   0.0000       6.752957       183.7573 
 448   0.0000       6.752957       183.7573 
 449   0.0000       6.752957       183.7573 
 450   0.0000       6.777929       184.4368 
 451   0.0000       6.777929       184.4368 
 452   0.0000       6.787234       184.6900 
 453   0.0000       6.787234       184.6900 
 454   0.0000       6.787234       184.6900 
 455   0.0000       6.893866       187.5916 
 456   0.0000       6.895138       187.6262 
 457   0.0000       6.895138       187.6262 
 458   0.0000       6.895159       187.6268 
 459   0.0000       6.895159       187.6268 
 460   0.0000       6.895160       187.6268 
 461   0.0000       6.947440       189.0494 
 462   0.0000       6.947440       189.0494 
 463   0.0000       6.947440       189.0494 
 464   0.0000       6.956097       189.2850 
 465   0.0000       6.956098       189.2850 
 466   0.0000       6.956098       189.2850 
 467   0.0000       7.011837       190.8018 
 468   0.0000       7.011837       190.8018 
 469   0.0000       7.011837       190.8018 
 470   0.0000       7.012455       190.8186 
 471   0.0000       7.012455       190.8186 
 472   0.0000       7.012455       190.8186 
 473   0.0000       7.069304       192.3656 
 474   0.0000       7.069304       192.3656 
 475   0.0000       7.069305       192.3656 
 476   0.0000       7.081072       192.6858 
 477   0.0000       7.096904       193.1166 
 478   0.0000       7.096904       193.1166 
 479   0.0000       7.096904       193.1166 
 480   0.0000       7.117416       193.6747 
 481   0.0000       7.117416       193.6747 
 482   0.0000       7.147682       194.4983 
 483   0.0000       7.195611       195.8025 
 484   0.0000       7.209004       196.1670 
 485   0.0000       7.209004       196.1670 
 486   0.0000       7.235058       196.8759 
 487   0.0000       7.235058       196.8759 
 488   0.0000       7.235058       196.8759 
 489   0.0000       7.243392       197.1027 
 490   0.0000       7.243392       197.1027 
 491   0.0000       7.243392       197.1027 
 492   0.0000       7.315831       199.0739 
 493   0.0000       7.370526       200.5622 
 494   0.0000       7.370526       200.5622 
 495   0.0000       7.370526       200.5622 
 496   0.0000       7.371581       200.5909 
 497   0.0000       7.371581       200.5909 
 498   0.0000       7.371581       200.5909 
 499   0.0000       7.388918       201.0627 
 500   0.0000       7.388918       201.0627 
 501   0.0000       7.388918       201.0627 
 502   0.0000       7.428916       202.1511 
 503   0.0000       7.521249       204.6636 
 504   0.0000       7.521249       204.6636 
 505   0.0000       7.521249       204.6636 
 506   0.0000       7.566787       205.9027 
 507   0.0000       7.566787       205.9027 
 508   0.0000       7.566787       205.9027 
 509   0.0000       7.585597       206.4146 
 510   0.0000       7.585597       206.4146 
 511   0.0000       7.586966       206.4518 
 512   0.0000       7.586966       206.4518 
 513   0.0000       7.762807       211.2367 
 514   0.0000       7.762807       211.2367 
 515   0.0000       7.762807       211.2367 
 516   0.0000       7.786086       211.8702 
 517   0.0000       7.794325       212.0944 
 518   0.0000       7.850796       213.6310 
 519   0.0000       7.850796       213.6310 
 520   0.0000       7.850796       213.6310 
 521   0.0000       7.881099       214.4556 
 522   0.0000       7.881099       214.4556 
 523   0.0000       7.881099       214.4556 
 524   0.0000       7.992603       217.4898 
 525   0.0000       7.992603       217.4898 
 526   0.0000       7.992603       217.4898 
 527   0.0000       8.037422       218.7094 
 528   0.0000       8.037422       218.7094 
 529   0.0000       8.037422       218.7094 
 530   0.0000       8.045015       218.9160 
 531   0.0000       8.045015       218.9160 
 532   0.0000       8.047570       218.9855 
 533   0.0000       8.082992       219.9494 
 534   0.0000       8.082992       219.9494 
 535   0.0000       8.082992       219.9494 
 536   0.0000       8.145946       221.6625 
 537   0.0000       8.145946       221.6625 
 538   0.0000       8.145946       221.6625 
 539   0.0000       8.206185       223.3017 
 540   0.0000       8.206185       223.3017 
 541   0.0000       8.206186       223.3017 
 542   0.0000       8.240114       224.2249 
 543   0.0000       8.240114       224.2249 
 544   0.0000       8.266049       224.9306 
 545   0.0000       8.266049       224.9306 
 546   0.0000       8.266049       224.9306 
 547   0.0000       8.285785       225.4677 
 548   0.0000       8.285785       225.4677 
 549   0.0000       8.285785       225.4677 
 550   0.0000       8.313266       226.2155 
 551   0.0000       8.313266       226.2155 
 552   0.0000       8.313266       226.2155 
 553   0.0000       8.352802       227.2913 
 554   0.0000       8.352802       227.2913 
 555   0.0000       8.352802       227.2913 
 556   0.0000       8.415342       228.9931 
 557   0.0000       8.415342       228.9931 
 558   0.0000       8.415342       228.9931 
 559   0.0000       8.426336       229.2923 
 560   0.0000       8.426336       229.2923 
 561   0.0000       8.440643       229.6816 
 562   0.0000       8.440643       229.6816 
 563   0.0000       8.440643       229.6816 
 564   0.0000       8.462957       230.2888 
 565   0.0000       8.462957       230.2888 
 566   0.0000       8.485137       230.8923 
 567   0.0000       8.485137       230.8923 
 568   0.0000       8.485137       230.8923 
 569   0.0000       8.507754       231.5078 
 570   0.0000       8.574004       233.3105 
 571   0.0000       8.625867       234.7218 
 572   0.0000       8.625867       234.7218 
 573   0.0000       8.625867       234.7218 
 574   0.0000       8.628849       234.8029 
 575   0.0000       8.628849       234.8029 
 576   0.0000       8.628849       234.8029 
 577   0.0000       8.705357       236.8848 
 578   0.0000       8.705357       236.8848 
 579   0.0000       8.773646       238.7431 
 580   0.0000       8.773646       238.7431 
 581   0.0000       8.773646       238.7431 
 582   0.0000       8.851651       240.8657 
 583   0.0000       8.851651       240.8657 
 584   0.0000       8.851651       240.8657 
 585   0.0000       8.855234       240.9632 
 586   0.0000       8.855234       240.9632 
 587   0.0000       8.855234       240.9632 
 588   0.0000       8.929003       242.9705 
 589   0.0000       8.967301       244.0127 
 590   0.0000       8.967301       244.0127 
 591   0.0000       8.992326       244.6936 
 592   0.0000       9.020409       245.4578 
 593   0.0000       9.020409       245.4578 
 594   0.0000       9.020409       245.4578 
 595   0.0000       9.053237       246.3511 
 596   0.0000       9.053237       246.3511 
 597   0.0000       9.077906       247.0224 
 598   0.0000       9.077906       247.0224 
 599   0.0000       9.077906       247.0224 
 600   0.0000       9.087123       247.2732 
 601   0.0000       9.087123       247.2732 
 602   0.0000       9.087123       247.2732 
 603   0.0000       9.099306       247.6047 
 604   0.0000       9.099306       247.6047 
 605   0.0000       9.166576       249.4352 
 606   0.0000       9.166576       249.4352 
 607   0.0000       9.166576       249.4352 
 608   0.0000       9.266430       252.1524 
 609   0.0000       9.266430       252.1524 
 610   0.0000       9.305542       253.2167 
 611   0.0000       9.305542       253.2167 
 612   0.0000       9.305542       253.2167 
 613   0.0000       9.368153       254.9204 
 614   0.0000       9.368153       254.9204 
 615   0.0000       9.368153       254.9204 
 616   0.0000       9.473485       257.7866 
 617   0.0000       9.473485       257.7866 
 618   0.0000       9.473485       257.7866 
 619   0.0000       9.507250       258.7054 
 620   0.0000       9.507250       258.7054 
 621   0.0000       9.507250       258.7054 
 622   0.0000       9.714142       264.3353 
 623   0.0000       9.749137       265.2875 
 624   0.0000       9.749137       265.2875 
 625   0.0000       9.750174       265.3157 
 626   0.0000       9.750175       265.3157 
 627   0.0000       9.750175       265.3157 
 628   0.0000       9.785398       266.2742 
 629   0.0000       9.785398       266.2742 
 630   0.0000       9.785398       266.2742 
 631   0.0000       9.903684       269.4929 
 632   0.0000       9.903684       269.4929 
 633   0.0000       9.903684       269.4929 
 634   0.0000      10.215350       277.9738 
 635   0.0000      10.215350       277.9738 
 636   0.0000      10.216795       278.0131 
 637   0.0000      10.216795       278.0131 
 638   0.0000      10.245999       278.8078 
 639   0.0000      10.245999       278.8078 
 640   0.0000      10.245999       278.8078 
 641   0.0000      10.394979       282.8617 
 642   0.0000      10.394979       282.8617 
 643   0.0000      10.394979       282.8618 
 644   0.0000      10.401463       283.0382 
 645   0.0000      10.460207       284.6367 
 646   0.0000      10.499747       285.7126 
 647   0.0000      10.499747       285.7126 
 648   0.0000      10.499747       285.7126 
 649   0.0000      10.685200       290.7591 
 650   0.0000      10.685200       290.7591 
 651   0.0000      10.685200       290.7591 
 652   0.0000      10.827342       294.6270 
 653   0.0000      10.827342       294.6270 
 654   0.0000      10.827342       294.6270 
 655   0.0000      10.935177       297.5613 
 656   0.0000      10.935177       297.5613 
 657   0.0000      10.935177       297.5613 
 658   0.0000      10.999578       299.3137 
 659   0.0000      10.999578       299.3137 
 660   0.0000      10.999578       299.3137 
 661   0.0000      11.079911       301.4997 
 662   0.0000      11.580840       315.1307 
 663   0.0000      11.580840       315.1307 
 664   0.0000      12.453430       338.8751 
 665   0.0000      12.734675       346.5281 
 666   0.0000      12.734675       346.5281 
 667   0.0000      12.734675       346.5281 
 668   0.0000      12.986654       353.3848 
 669   0.0000      12.986654       353.3848 
 670   0.0000      12.986654       353.3848 
 671   0.0000      14.081596       383.1797 
 672   0.0000      25.039658       681.3637 
 673   0.0000      25.376321       690.5248 
 674   0.0000      25.376321       690.5248 
 675   0.0000      25.376321       690.5248 
 676   0.0000      26.565182       722.8754 
 677   0.0000      26.565182       722.8754 
 678   0.0000      26.565183       722.8754 
 679   0.0000      29.459974       801.6467 

                    ********************************
                    * MULLIKEN POPULATION ANALYSIS *
                    ********************************

-----------------------
MULLIKEN ATOMIC CHARGES
-----------------------
   0 H :    0.200328
   1 H :    0.200328
   2 H :    0.200328
   3 H :    0.200328
   4 H :    0.200328
   5 H :    0.200328
   6 H :    0.200328
   7 H :    0.200328
   8 C :   -0.200328
   9 C :   -0.200329
  10 C :   -0.200328
  11 C :   -0.200328
  12 C :   -0.200328
  13 C :   -0.200329
  14 C :   -0.200328
  15 C :   -0.200328
Sum of atomic charges:   -0.0000000

--------------------------------
MULLIKEN REDUCED ORBITAL CHARGES
--------------------------------
  0 H s       :     0.765236  s :     0.765236
      pz      :     0.010190  p :     0.030571
      px      :     0.010190
      py      :     0.010190
      dz2     :     0.001158  d :     0.003633
      dxz     :     0.000439
      dyz     :     0.000439
      dx2y2   :     0.001158
      dxy     :     0.000439
      f0      :     0.000031  f :     0.000232
      f+1     :     0.000032
      f-1     :     0.000032
      f+2     :     0.000032
      f-2     :     0.000043
      f+3     :     0.000031
      f-3     :     0.000031
  1 H s       :     0.765236  s :     0.765236
      pz      :     0.010190  p :     0.030571
      px      :     0.010190
      py      :     0.010190
      dz2     :     0.001158  d :     0.003633
      dxz     :     0.000439
      dyz     :     0.000439
      dx2y2   :     0.001158
      dxy     :     0.000439
      f0      :     0.000031  f :     0.000232
      f+1     :     0.000032
      f-1     :     0.000032
      f+2     :     0.000032
      f-2     :     0.000043
      f+3     :     0.000031
      f-3     :     0.000031
  2 H s       :     0.765236  s :     0.765236
      pz      :     0.010190  p :     0.030571
      px      :     0.010190
      py      :     0.010190
      dz2     :     0.001158  d :     0.003633
      dxz     :     0.000439
      dyz     :     0.000439
      dx2y2   :     0.001158
      dxy     :     0.000439
      f0      :     0.000031  f :     0.000232
      f+1     :     0.000032
      f-1     :     0.000032
      f+2     :     0.000032
      f-2     :     0.000043
      f+3     :     0.000031
      f-3     :     0.000031
  3 H s       :     0.765236  s :     0.765236
      pz      :     0.010190  p :     0.030571
      px      :     0.010190
      py      :     0.010190
      dz2     :     0.001158  d :     0.003633
      dxz     :     0.000439
      dyz     :     0.000439
      dx2y2   :     0.001158
      dxy     :     0.000439
      f0      :     0.000031  f :     0.000232
      f+1     :     0.000032
      f-1     :     0.000032
      f+2     :     0.000032
      f-2     :     0.000043
      f+3     :     0.000031
      f-3     :     0.000031
  4 H s       :     0.765236  s :     0.765236
      pz      :     0.010190  p :     0.030571
      px      :     0.010190
      py      :     0.010190
      dz2     :     0.001158  d :     0.003633
      dxz     :     0.000439
      dyz     :     0.000439
      dx2y2   :     0.001158
      dxy     :     0.000439
      f0      :     0.000031  f :     0.000232
      f+1     :     0.000032
      f-1     :     0.000032
      f+2     :     0.000032
      f-2     :     0.000043
      f+3     :     0.000031
      f-3     :     0.000031
  5 H s       :     0.765236  s :     0.765236
      pz      :     0.010190  p :     0.030571
      px      :     0.010190
      py      :     0.010190
      dz2     :     0.001158  d :     0.003633
      dxz     :     0.000439
      dyz     :     0.000439
      dx2y2   :     0.001158
      dxy     :     0.000439
      f0      :     0.000031  f :     0.000232
      f+1     :     0.000032
      f-1     :     0.000032
      f+2     :     0.000032
      f-2     :     0.000043
      f+3     :     0.000031
      f-3     :     0.000031
  6 H s       :     0.765236  s :     0.765236
      pz      :     0.010190  p :     0.030571
      px      :     0.010190
      py      :     0.010190
      dz2     :     0.001158  d :     0.003633
      dxz     :     0.000439
      dyz     :     0.000439
      dx2y2   :     0.001158
      dxy     :     0.000439
      f0      :     0.000031  f :     0.000232
      f+1     :     0.000032
      f-1     :     0.000032
      f+2     :     0.000032
      f-2     :     0.000043
      f+3     :     0.000031
      f-3     :     0.000031
  7 H s       :     0.765236  s :     0.765236
      pz      :     0.010190  p :     0.030571
      px      :     0.010190
      py      :     0.010190
      dz2     :     0.001158  d :     0.003633
      dxz     :     0.000439
      dyz     :     0.000439
      dx2y2   :     0.001158
      dxy     :     0.000439
      f0      :     0.000031  f :     0.000232
      f+1     :     0.000032
      f-1     :     0.000032
      f+2     :     0.000032
      f-2     :     0.000043
      f+3     :     0.000031
      f-3     :     0.000031
  8 C s       :     3.279747  s :     3.279747
      pz      :     0.914147  p :     2.742442
      px      :     0.914147
      py      :     0.914147
      dz2     :     0.030425  d :     0.159780
      dxz     :     0.032977
      dyz     :     0.032977
      dx2y2   :     0.030425
      dxy     :     0.032977
      f0      :     0.003459  f :     0.017163
      f+1     :     0.002475
      f-1     :     0.002475
      f+2     :     0.001884
      f-2     :     0.001135
      f+3     :     0.002868
      f-3     :     0.002868
      g0      :     0.000210  g :     0.001196
      g+1     :     0.000161
      g-1     :     0.000161
      g+2     :     0.000083
      g-2     :     0.000069
      g+3     :     0.000082
      g-3     :     0.000082
      g+4     :     0.000174
      g-4     :     0.000174
  9 C s       :     3.279748  s :     3.279748
      pz      :     0.914147  p :     2.742442
      px      :     0.914147
      py      :     0.914147
      dz2     :     0.030425  d :     0.159780
      dxz     :     0.032977
      dyz     :     0.032977
      dx2y2   :     0.030425
      dxy     :     0.032977
      f0      :     0.003459  f :     0.017163
      f+1     :     0.002475
      f-1     :     0.002475
      f+2     :     0.001884
      f-2     :     0.001135
      f+3     :     0.002868
      f-3     :     0.002868
      g0      :     0.000210  g :     0.001196
      g+1     :     0.000161
      g-1     :     0.000161
      g+2     :     0.000083
      g-2     :     0.000069
      g+3     :     0.000082
      g-3     :     0.000082
      g+4     :     0.000174
      g-4     :     0.000174
 10 C s       :     3.279747  s :     3.279747
      pz      :     0.914147  p :     2.742442
      px      :     0.914147
      py      :     0.914147
      dz2     :     0.030425  d :     0.159780
      dxz     :     0.032977
      dyz     :     0.032977
      dx2y2   :     0.030425
      dxy     :     0.032977
      f0      :     0.003459  f :     0.017163
      f+1     :     0.002475
      f-1     :     0.002475
      f+2     :     0.001884
      f-2     :     0.001135
      f+3     :     0.002868
      f-3     :     0.002868
      g0      :     0.000210  g :     0.001196
      g+1     :     0.000161
      g-1     :     0.000161
      g+2     :     0.000083
      g-2     :     0.000069
      g+3     :     0.000082
      g-3     :     0.000082
      g+4     :     0.000174
      g-4     :     0.000174
 11 C s       :     3.279747  s :     3.279747
      pz      :     0.914147  p :     2.742442
      px      :     0.914147
      py      :     0.914147
      dz2     :     0.030425  d :     0.159780
      dxz     :     0.032977
      dyz     :     0.032977
      dx2y2   :     0.030425
      dxy     :     0.032977
      f0      :     0.003459  f :     0.017163
      f+1     :     0.002475
      f-1     :     0.002475
      f+2     :     0.001884
      f-2     :     0.001135
      f+3     :     0.002868
      f-3     :     0.002868
      g0      :     0.000210  g :     0.001196
      g+1     :     0.000161
      g-1     :     0.000161
      g+2     :     0.000083
      g-2     :     0.000069
      g+3     :     0.000082
      g-3     :     0.000082
      g+4     :     0.000174
      g-4     :     0.000174
 12 C s       :     3.279747  s :     3.279747
      pz      :     0.914147  p :     2.742442
      px      :     0.914147
      py      :     0.914147
      dz2     :     0.030425  d :     0.159780
      dxz     :     0.032977
      dyz     :     0.032977
      dx2y2   :     0.030425
      dxy     :     0.032977
      f0      :     0.003459  f :     0.017163
      f+1     :     0.002475
      f-1     :     0.002475
      f+2     :     0.001884
      f-2     :     0.001135
      f+3     :     0.002868
      f-3     :     0.002868
      g0      :     0.000210  g :     0.001196
      g+1     :     0.000161
      g-1     :     0.000161
      g+2     :     0.000083
      g-2     :     0.000069
      g+3     :     0.000082
      g-3     :     0.000082
      g+4     :     0.000174
      g-4     :     0.000174
 13 C s       :     3.279748  s :     3.279748
      pz      :     0.914147  p :     2.742442
      px      :     0.914147
      py      :     0.914147
      dz2     :     0.030425  d :     0.159780
      dxz     :     0.032977
      dyz     :     0.032977
      dx2y2   :     0.030425
      dxy     :     0.032977
      f0      :     0.003459  f :     0.017163
      f+1     :     0.002475
      f-1     :     0.002475
      f+2     :     0.001884
      f-2     :     0.001135
      f+3     :     0.002868
      f-3     :     0.002868
      g0      :     0.000210  g :     0.001196
      g+1     :     0.000161
      g-1     :     0.000161
      g+2     :     0.000083
      g-2     :     0.000069
      g+3     :     0.000082
      g-3     :     0.000082
      g+4     :     0.000174
      g-4     :     0.000174
 14 C s       :     3.279747  s :     3.279747
      pz      :     0.914147  p :     2.742442
      px      :     0.914147
      py      :     0.914147
      dz2     :     0.030425  d :     0.159780
      dxz     :     0.032977
      dyz     :     0.032977
      dx2y2   :     0.030425
      dxy     :     0.032977
      f0      :     0.003459  f :     0.017163
      f+1     :     0.002475
      f-1     :     0.002475
      f+2     :     0.001884
      f-2     :     0.001135
      f+3     :     0.002868
      f-3     :     0.002868
      g0      :     0.000210  g :     0.001196
      g+1     :     0.000161
      g-1     :     0.000161
      g+2     :     0.000083
      g-2     :     0.000069
      g+3     :     0.000082
      g-3     :     0.000082
      g+4     :     0.000174
      g-4     :     0.000174
 15 C s       :     3.279747  s :     3.279747
      pz      :     0.914147  p :     2.742442
      px      :     0.914147
      py      :     0.914147
      dz2     :     0.030425  d :     0.159780
      dxz     :     0.032977
      dyz     :     0.032977
      dx2y2   :     0.030425
      dxy     :     0.032977
      f0      :     0.003459  f :     0.017163
      f+1     :     0.002475
      f-1     :     0.002475
      f+2     :     0.001884
      f-2     :     0.001135
      f+3     :     0.002868
      f-3     :     0.002868
      g0      :     0.000210  g :     0.001196
      g+1     :     0.000161
      g-1     :     0.000161
      g+2     :     0.000083
      g-2     :     0.000069
      g+3     :     0.000082
      g-3     :     0.000082
      g+4     :     0.000174
      g-4     :     0.000174


                     *******************************
                     * LOEWDIN POPULATION ANALYSIS *
                     *******************************

----------------------
LOEWDIN ATOMIC CHARGES
----------------------
   0 H :   -0.122583
   1 H :   -0.122583
   2 H :   -0.122583
   3 H :   -0.122583
   4 H :   -0.122583
   5 H :   -0.122583
   6 H :   -0.122583
   7 H :   -0.122583
   8 C :    0.122583
   9 C :    0.122583
  10 C :    0.122583
  11 C :    0.122583
  12 C :    0.122583
  13 C :    0.122583
  14 C :    0.122583
  15 C :    0.122583

-------------------------------
LOEWDIN REDUCED ORBITAL CHARGES
-------------------------------
  0 H s       :     0.842962  s :     0.842962
      pz      :     0.067989  p :     0.203968
      px      :     0.067989
      py      :     0.067989
      dz2     :     0.018531  d :     0.066852
      dxz     :     0.009930
      dyz     :     0.009930
      dx2y2   :     0.018531
      dxy     :     0.009930
      f0      :     0.000915  f :     0.008801
      f+1     :     0.001300
      f-1     :     0.001300
      f+2     :     0.001532
      f-2     :     0.001461
      f+3     :     0.001146
      f-3     :     0.001146
  1 H s       :     0.842962  s :     0.842962
      pz      :     0.067989  p :     0.203968
      px      :     0.067989
      py      :     0.067989
      dz2     :     0.018531  d :     0.066852
      dxz     :     0.009930
      dyz     :     0.009930
      dx2y2   :     0.018531
      dxy     :     0.009930
      f0      :     0.000915  f :     0.008801
      f+1     :     0.001300
      f-1     :     0.001300
      f+2     :     0.001532
      f-2     :     0.001461
      f+3     :     0.001146
      f-3     :     0.001146
  2 H s       :     0.842962  s :     0.842962
      pz      :     0.067989  p :     0.203968
      px      :     0.067989
      py      :     0.067989
      dz2     :     0.018531  d :     0.066852
      dxz     :     0.009930
      dyz     :     0.009930
      dx2y2   :     0.018531
      dxy     :     0.009930
      f0      :     0.000915  f :     0.008801
      f+1     :     0.001300
      f-1     :     0.001300
      f+2     :     0.001532
      f-2     :     0.001461
      f+3     :     0.001146
      f-3     :     0.001146
  3 H s       :     0.842962  s :     0.842962
      pz      :     0.067989  p :     0.203968
      px      :     0.067989
      py      :     0.067989
      dz2     :     0.018531  d :     0.066852
      dxz     :     0.009930
      dyz     :     0.009930
      dx2y2   :     0.018531
      dxy     :     0.009930
      f0      :     0.000915  f :     0.008801
      f+1     :     0.001300
      f-1     :     0.001300
      f+2     :     0.001532
      f-2     :     0.001461
      f+3     :     0.001146
      f-3     :     0.001146
  4 H s       :     0.842962  s :     0.842962
      pz      :     0.067989  p :     0.203968
      px      :     0.067989
      py      :     0.067989
      dz2     :     0.018531  d :     0.066852
      dxz     :     0.009930
      dyz     :     0.009930
      dx2y2   :     0.018531
      dxy     :     0.009930
      f0      :     0.000915  f :     0.008801
      f+1     :     0.001300
      f-1     :     0.001300
      f+2     :     0.001532
      f-2     :     0.001461
      f+3     :     0.001146
      f-3     :     0.001146
  5 H s       :     0.842962  s :     0.842962
      pz      :     0.067989  p :     0.203968
      px      :     0.067989
      py      :     0.067989
      dz2     :     0.018531  d :     0.066852
      dxz     :     0.009930
      dyz     :     0.009930
      dx2y2   :     0.018531
      dxy     :     0.009930
      f0      :     0.000915  f :     0.008801
      f+1     :     0.001300
      f-1     :     0.001300
      f+2     :     0.001532
      f-2     :     0.001461
      f+3     :     0.001146
      f-3     :     0.001146
  6 H s       :     0.842962  s :     0.842962
      pz      :     0.067989  p :     0.203968
      px      :     0.067989
      py      :     0.067989
      dz2     :     0.018531  d :     0.066852
      dxz     :     0.009930
      dyz     :     0.009930
      dx2y2   :     0.018531
      dxy     :     0.009930
      f0      :     0.000915  f :     0.008801
      f+1     :     0.001300
      f-1     :     0.001300
      f+2     :     0.001532
      f-2     :     0.001461
      f+3     :     0.001146
      f-3     :     0.001146
  7 H s       :     0.842962  s :     0.842962
      pz      :     0.067989  p :     0.203968
      px      :     0.067989
      py      :     0.067989
      dz2     :     0.018531  d :     0.066852
      dxz     :     0.009930
      dyz     :     0.009930
      dx2y2   :     0.018531
      dxy     :     0.009930
      f0      :     0.000915  f :     0.008801
      f+1     :     0.001300
      f-1     :     0.001300
      f+2     :     0.001532
      f-2     :     0.001461
      f+3     :     0.001146
      f-3     :     0.001146
  8 C s       :     2.559845  s :     2.559845
      pz      :     0.829280  p :     2.487841
      px      :     0.829280
      py      :     0.829280
      dz2     :     0.118777  d :     0.646248
      dxz     :     0.136231
      dyz     :     0.136231
      dx2y2   :     0.118777
      dxy     :     0.136231
      f0      :     0.029131  f :     0.172366
      f+1     :     0.027354
      f-1     :     0.027354
      f+2     :     0.026288
      f-2     :     0.006110
      f+3     :     0.028065
      f-3     :     0.028065
      g0      :     0.001123  g :     0.011116
      g+1     :     0.002055
      g-1     :     0.002055
      g+2     :     0.000731
      g-2     :     0.000468
      g+3     :     0.000695
      g-3     :     0.000695
      g+4     :     0.001011
      g-4     :     0.002282
  9 C s       :     2.559845  s :     2.559845
      pz      :     0.829280  p :     2.487841
      px      :     0.829280
      py      :     0.829280
      dz2     :     0.118777  d :     0.646248
      dxz     :     0.136231
      dyz     :     0.136231
      dx2y2   :     0.118777
      dxy     :     0.136231
      f0      :     0.029131  f :     0.172366
      f+1     :     0.027354
      f-1     :     0.027354
      f+2     :     0.026288
      f-2     :     0.006110
      f+3     :     0.028065
      f-3     :     0.028065
      g0      :     0.001123  g :     0.011116
      g+1     :     0.002055
      g-1     :     0.002055
      g+2     :     0.000731
      g-2     :     0.000468
      g+3     :     0.000695
      g-3     :     0.000695
      g+4     :     0.001011
      g-4     :     0.002282
 10 C s       :     2.559845  s :     2.559845
      pz      :     0.829280  p :     2.487841
      px      :     0.829280
      py      :     0.829280
      dz2     :     0.118777  d :     0.646248
      dxz     :     0.136231
      dyz     :     0.136231
      dx2y2   :     0.118777
      dxy     :     0.136231
      f0      :     0.029131  f :     0.172366
      f+1     :     0.027354
      f-1     :     0.027354
      f+2     :     0.026288
      f-2     :     0.006110
      f+3     :     0.028065
      f-3     :     0.028065
      g0      :     0.001123  g :     0.011116
      g+1     :     0.002055
      g-1     :     0.002055
      g+2     :     0.000731
      g-2     :     0.000468
      g+3     :     0.000695
      g-3     :     0.000695
      g+4     :     0.001011
      g-4     :     0.002282
 11 C s       :     2.559845  s :     2.559845
      pz      :     0.829280  p :     2.487841
      px      :     0.829280
      py      :     0.829280
      dz2     :     0.118777  d :     0.646248
      dxz     :     0.136231
      dyz     :     0.136231
      dx2y2   :     0.118777
      dxy     :     0.136231
      f0      :     0.029131  f :     0.172366
      f+1     :     0.027354
      f-1     :     0.027354
      f+2     :     0.026288
      f-2     :     0.006110
      f+3     :     0.028065
      f-3     :     0.028065
      g0      :     0.001123  g :     0.011116
      g+1     :     0.002055
      g-1     :     0.002055
      g+2     :     0.000731
      g-2     :     0.000468
      g+3     :     0.000695
      g-3     :     0.000695
      g+4     :     0.001011
      g-4     :     0.002282
 12 C s       :     2.559845  s :     2.559845
      pz      :     0.829280  p :     2.487841
      px      :     0.829280
      py      :     0.829280
      dz2     :     0.118777  d :     0.646248
      dxz     :     0.136231
      dyz     :     0.136231
      dx2y2   :     0.118777
      dxy     :     0.136231
      f0      :     0.029131  f :     0.172366
      f+1     :     0.027354
      f-1     :     0.027354
      f+2     :     0.026288
      f-2     :     0.006110
      f+3     :     0.028065
      f-3     :     0.028065
      g0      :     0.001123  g :     0.011116
      g+1     :     0.002055
      g-1     :     0.002055
      g+2     :     0.000731
      g-2     :     0.000468
      g+3     :     0.000695
      g-3     :     0.000695
      g+4     :     0.001011
      g-4     :     0.002282
 13 C s       :     2.559845  s :     2.559845
      pz      :     0.829280  p :     2.487841
      px      :     0.829280
      py      :     0.829280
      dz2     :     0.118777  d :     0.646248
      dxz     :     0.136231
      dyz     :     0.136231
      dx2y2   :     0.118777
      dxy     :     0.136231
      f0      :     0.029131  f :     0.172366
      f+1     :     0.027354
      f-1     :     0.027354
      f+2     :     0.026288
      f-2     :     0.006110
      f+3     :     0.028065
      f-3     :     0.028065
      g0      :     0.001123  g :     0.011116
      g+1     :     0.002055
      g-1     :     0.002055
      g+2     :     0.000731
      g-2     :     0.000468
      g+3     :     0.000695
      g-3     :     0.000695
      g+4     :     0.001011
      g-4     :     0.002282
 14 C s       :     2.559845  s :     2.559845
      pz      :     0.829280  p :     2.487841
      px      :     0.829280
      py      :     0.829280
      dz2     :     0.118777  d :     0.646248
      dxz     :     0.136231
      dyz     :     0.136231
      dx2y2   :     0.118777
      dxy     :     0.136231
      f0      :     0.029131  f :     0.172366
      f+1     :     0.027354
      f-1     :     0.027354
      f+2     :     0.026288
      f-2     :     0.006110
      f+3     :     0.028065
      f-3     :     0.028065
      g0      :     0.001123  g :     0.011116
      g+1     :     0.002055
      g-1     :     0.002055
      g+2     :     0.000731
      g-2     :     0.000468
      g+3     :     0.000695
      g-3     :     0.000695
      g+4     :     0.001011
      g-4     :     0.002282
 15 C s       :     2.559845  s :     2.559845
      pz      :     0.829280  p :     2.487841
      px      :     0.829280
      py      :     0.829280
      dz2     :     0.118777  d :     0.646248
      dxz     :     0.136231
      dyz     :     0.136231
      dx2y2   :     0.118777
      dxy     :     0.136231
      f0      :     0.029131  f :     0.172366
      f+1     :     0.027354
      f-1     :     0.027354
      f+2     :     0.026288
      f-2     :     0.006110
      f+3     :     0.028065
      f-3     :     0.028065
      g0      :     0.001123  g :     0.011116
      g+1     :     0.002055
      g-1     :     0.002055
      g+2     :     0.000731
      g-2     :     0.000468
      g+3     :     0.000695
      g-3     :     0.000695
      g+4     :     0.001011
      g-4     :     0.002282


                      *****************************
                      * MAYER POPULATION ANALYSIS *
                      *****************************

  NA   - Mulliken gross atomic population
  ZA   - Total nuclear charge
  QA   - Mulliken gross atomic charge
  VA   - Mayer's total valence
  BVA  - Mayer's bonded valence
  FA   - Mayer's free valence

  ATOM       NA         ZA         QA         VA         BVA        FA
  0 H      0.7997     1.0000     0.2003     0.9716     0.9716     0.0000
  1 H      0.7997     1.0000     0.2003     0.9716     0.9716    -0.0000
  2 H      0.7997     1.0000     0.2003     0.9716     0.9716    -0.0000
  3 H      0.7997     1.0000     0.2003     0.9716     0.9716    -0.0000
  4 H      0.7997     1.0000     0.2003     0.9716     0.9716    -0.0000
  5 H      0.7997     1.0000     0.2003     0.9716     0.9716    -0.0000
  6 H      0.7997     1.0000     0.2003     0.9716     0.9716     0.0000
  7 H      0.7997     1.0000     0.2003     0.9716     0.9716     0.0000
  8 C      6.2003     6.0000    -0.2003     3.6665     3.6665     0.0000
  9 C      6.2003     6.0000    -0.2003     3.6665     3.6665    -0.0000
 10 C      6.2003     6.0000    -0.2003     3.6665     3.6665    -0.0000
 11 C      6.2003     6.0000    -0.2003     3.6665     3.6665    -0.0000
[...]
 number of shell sets in domains (without screening) =            7236000
 number of shell sets without domains or screening   =            7236000
Closing buffer /home/vladimir/git/private/ORCA/C8H8/cubane/optimize/CC/DLPNO_CCSDT/cc-pVQZ/./cubane.kxy_op0.tmp.proc0 ( 0.00 GB; CompressionRatio= 1.00)
Local 3-center integral transformation (op=0) completed in     3.336 sec

------------------------------
LOCAL RI (xy|k) TRANSFORMATION
------------------------------

Dimension of OBS basis                 ... 680
Dimension of (OBS)PAOs                 ... 680
Dimension of the aux-basis             ... 1496
Integral mode                          ... Direct

First Phase: integral generation and first transformation of MO indices
 number of shell sets computed                       =            7236000
 number of shell sets in domains (without screening) =            7236000
 number of shell sets without domains or screening   =            7236000
Closing buffer /home/vladimir/git/private/ORCA/C8H8/cubane/optimize/CC/DLPNO_CCSDT/cc-pVQZ/./cubane.VABPAO.tmp.proc0 ( 0.62 GB; CompressionRatio= 1.00)
Local 3-center integral transformation (op=0) completed in    25.166 sec


-------------------------------------
Pair Pair Term precalculation with     
RI-(ij|mn) and (im|jn) transformation  
ON THE FLY                             
-------------------------------------

   IBatch   1 (of  24)              ... done (   19.412 sec)
   IBatch   2 (of  24)              ... done (   26.955 sec)
   IBatch   3 (of  24)              ... done (   16.390 sec)
   IBatch   4 (of  24)              ... done (   17.336 sec)
   IBatch   5 (of  24)              ... done (   13.239 sec)
   IBatch   6 (of  24)              ... done (   15.569 sec)
   IBatch   7 (of  24)              ... done (   29.081 sec)
   IBatch   8 (of  24)              ... done (   16.029 sec)
   IBatch   9 (of  24)              ... done (   15.627 sec)
   IBatch  10 (of  24)              ... done (   12.901 sec)
   IBatch  11 (of  24)              ... done (   15.679 sec)
   IBatch  12 (of  24)              ... done (   14.322 sec)
   IBatch  13 (of  24)              ... done (   15.797 sec)
   IBatch  14 (of  24)              ... done (   27.780 sec)
   IBatch  15 (of  24)              ... done (   29.630 sec)
   IBatch  16 (of  24)              ... done (   34.701 sec)
   IBatch  17 (of  24)              ... done (   35.072 sec)
   IBatch  18 (of  24)              ... done (   33.553 sec)
   IBatch  19 (of  24)              ... done (   32.835 sec)
   IBatch  20 (of  24)              ... done (   39.936 sec)
   IBatch  21 (of  24)              ... done (   38.389 sec)
   IBatch  22 (of  24)              ... done (   38.601 sec)
   IBatch  23 (of  24)              ... done (   47.125 sec)
   IBatch  24 (of  24)              ... done (   27.888 sec)
Total EXT                           ...         613.848 sec

---------------------
RI-PNO TRANSFORMATION
---------------------

Total Number of PNOs                   ...  8410
Average number of PNOs per pair        ...    40
Maximal number of PNOs per pair        ...    65
   #pairs with  1 -  5 PNOs   :    0
   #pairs with  6 - 10 PNOs   :    0
   #pairs with 11 - 15 PNOs   :    0
   #pairs with 16 - 20 PNOs   :   36
   #pairs with 21 - 25 PNOs   :    6
   #pairs with 26 - 30 PNOs   :    0
   #pairs with 31 - 35 PNOs   :   84
   #pairs with 36 - 40 PNOs   :    0
   #pairs with 41 - 45 PNOs   :   12
   #pairs with 46 - 50 PNOs   :    0
   #pairs with 61 - 65 PNOs   :   68

Generation of (ij|ab)[P] integrals            ... on
Generation of (ia|bc)[P],(ja|bc)[P] integrals ... on
Storage of 3 and 4 external integrals         ... on
Generation of ALL (ka|bc)[P] integrals        ... on
Keep RI integrals in memory                   ... off

Ibatch:  1 (of  1)
Starting 2-4 index PNO integral generation ... done

Timings:
Total PNO integral transformation time     ...        381.983 sec
Size of the 3-external file                ...       167 MB
Size of the 4-external file                ...      1226 MB
Size of the IKJL file                      ...         0 MB
Size of the all 3-external file            ...      1678 MB
Size of the 1-external file                ...         3 MB

Making pair/pair overlap matrices          ... done (   33.083 sec)
Size of the pair overlap file              ... 456 MB
Redoing the guess amplitudes               ... done (    0.011 sec)

-------------------------
FINAL STARTUP INFORMATION
-------------------------

E(0)                                       ...   -307.503163055
E(SL-MP2)                                  ...     -1.327574313
E(SL-MP2) including corrections            ...     -1.327574313
Initial E(tot)                             ...   -308.830737368
<T|T>                                      ...      0.387928239
Number of pairs included                   ... 206
Total number of pairs                      ... 210

------------------------------------------------
                  RHF COUPLED CLUSTER ITERATIONS
------------------------------------------------

Number of PNO amplitudes to be optimized   ...       403118
Number of non-PNO amplitudes               ...     87571424
Untruncated number of regular amplitudes   ...     89271840

Iter       E(tot)           E(Corr)          Delta-E          Residual     Time
  0   -308.830846337     -1.320655164      0.006919148      0.011884653   42.88
                           *** Turning on DIIS ***
  1   -308.858384061     -1.348192888     -0.027537724      0.007842862   42.10
  2   -308.890737854     -1.380546681     -0.032353793      0.002761451   41.61
  3   -308.897594721     -1.387403548     -0.006856867      0.001164553   40.97
  4   -308.898965656     -1.388774483     -0.001370935      0.000290595   42.91
  5   -308.899167264     -1.388976091     -0.000201608      0.000077278   41.16
  6   -308.899204747     -1.389013575     -0.000037483      0.000014688   41.03
  7   -308.899206944     -1.389015771     -0.000002197      0.000005020   42.82
               --- The Coupled-Cluster iterations have converged ---

----------------------
COUPLED CLUSTER ENERGY
----------------------

E(0)                                       ...   -307.503163055
E(CORR)(strong-pairs)                      ...     -1.389015771
E(CORR)(weak-pairs)                        ...     -0.007028118
E(CORR)(corrected)                         ...     -1.396043889
E(TOT)                                     ...   -308.899206944
Singles Norm <S|S>**1/2                    ...      0.053605188
T1 diagnostic                              ...      0.008475724

------------------
LARGEST AMPLITUDES
------------------
  13-> 28  13-> 28       0.047934
  19-> 28  19-> 28       0.047934
  17-> 28  17-> 28       0.047934
  25-> 28  25-> 28       0.047934
  26-> 28  26-> 28       0.047934
  21-> 28  21-> 28       0.047934
  15-> 28  15-> 28       0.047934
  27-> 28  27-> 28       0.047934
  23-> 28  23-> 28       0.047934
  14-> 28  14-> 28       0.047934
  18-> 28  18-> 28       0.047934
  22-> 28  22-> 28       0.047934
   9-> 31   9-> 31       0.037977
  16-> 31  16-> 31       0.037977
  24-> 31  24-> 31       0.037977
  11-> 31  11-> 31       0.037977


        !!!!!!!!!!!!!!!!!!!!!!!!!!!!!!!!!!!!!!!!!!!!!!!!!!!!!!!!!!!!!!!!!!!!!!!!!! 
        !  Warning: Linearized densities requested! These are not the proper     !
        !  density matrices for non-variational theories, e.g., CCSD, QCISD.     !
        !  It is better to use the Density = Unrelaxed option in the input.      !
        !!!!!!!!!!!!!!!!!!!!!!!!!!!!!!!!!!!!!!!!!!!!!!!!!!!!!!!!!!!!!!!!!!!!!!!!!! 


-------------------------------------------
DLPNO BASED TRIPLES CORRECTION
-------------------------------------------

Singles multiplier          ...  1.000000
TCutTNO                     ... 1.000e-09
TCutMP2Pairs                ... 1.000e-05
TCutDOStrong                ... 2.000e-03
TCutMKNStrong               ... 1.000e-02
TCutDOWeak                  ... 4.000e-03
TCutMKNWeak                 ... 1.000e-01
NTCutTNO                    ... 1

Fragment selection                          .... not used
TCutTNO
       1.000e-09
Number of Triples that are to be computed         ...      1512

 . . . . . . . . .
          Batch   1   done (    244.767 sec)
 . . . . . . . . .
10% done  
          Batch   2   done (    207.250 sec)
 . . . . . . . . .
          Batch   3   done (    210.601 sec)
 . . . . . . . . .
20% done  
          Batch   4   done (    195.181 sec)
 . . . . . . . . .
30% done  
          Batch   5   done (    195.289 sec)
 . . . . . . . . .
          Batch   6   done (    212.176 sec)
 . . . . . . . . .
40% done  
          Batch   7   done (    225.386 sec)
 . . . . . . . . .
50% done  
          Batch   8   done (    238.562 sec)
 . . . . . . . . .
60% done  
          Batch   9   done (    295.014 sec)
 . . . . . . . . .
70% done  
          Batch  10   done (    277.874 sec)
 . . . . . . . . .
          Batch  11   done (    267.230 sec)
 . . . . . . . . .
80% done  
          Batch  12   done (    250.602 sec)
 . . . . . . . . .
90% done  
          Batch  13   done (    375.234 sec)
 . . . . . . . . .
          Batch  14   done (     61.831 sec)

Triples-Correction TCutTNO=   1.000e-09 (NWeakPairs = 0  1  2  3)  -0.067896487614   -0.000080630631    0.000000000000    0.000000000000

Triples timings:
Total time                      ...  3424.921 sec

Triples List generation         ...     0.000 sec
TNO generation                  ...   167.888 sec
Pair density generation         ...     0.005 sec
Look up tables                  ...     0.000 sec
Generating 3-index integrals    ...  2917.470 sec
  Make 4-ind.int. from 3-ind.int...   137.745 sec
  Projecting amplitudes (D + S) ...   124.932 sec
  Downprojecting integrals      ...     0.005 sec
  Energy contr. (sum over a,b,c)...    14.033 sec
Fitting ET(->0)                 ...     0.000 sec

Everything after 3-index        ...   339.527 sec

Timing details:
 TNO integrals                  ...  3047.486 sec
   Reading 3-index integrals    ...    14.068 sec
   Sorting integrals            ...   225.003 sec
       Sorting integrals 1      ...     0.004 sec
       Sorting integrals 2      ...   208.226 sec
       Sorting integrals 3      ...     2.693 sec
       Sorting integrals 4      ...     0.078 sec
       Sorting integrals 5      ...     2.180 sec
       Sorting integrals 6      ...    11.823 sec
   Calculating local VM**-1/2   ...    10.488 sec
   Orthogonal. integrals        ...    13.353 sec
   Multipl. 3-index integrals   ...  2784.573 sec
   All concerning IRIab (w/TNO) ...    99.250 sec

 Calculate W0/W1                ...    62.793 sec
 W 3-ext contribution           ...    40.081 sec
 W 3-int contribution           ...     9.061 sec
 Sorting W                      ...    12.947 sec

 V exchange contribution        ...     4.154 sec

 Timings for Triples without generation
     of 3-index integrals       ...   339.525 sec
       0 weak pairs             ...   332.007 sec
       1 weak pair              ...     7.518 sec
       2 weak pairs             ...     0.000 sec
       3 weak pairs             ...     0.000 sec
  Extra time for extrapolation  ...     0.000 sec

Number of Triples   (0, 1, 2, 3 weak pairs; overall):   1440      72       0       0  (  1512)
Number of Atoms     (0, 1, 2, 3 weak pairs; overall):   15.6    11.3     0.0     0.0  (    16)
Number of PAOs      (0, 1, 2, 3 weak pairs; overall):  667.2   540.0     0.0     0.0  (   680)
Number of AuxFcns   (0, 1, 2, 3 weak pairs; overall): 1056.4   568.3     0.0     0.0  (  1496)
Number of TNOs EP 0 (0, 1, 2, 3 weak pairs         ):  109.4    75.0     0.0     0.0
Aver. Number of NTNO, Atoms, PAOs, AuxFcns / Triples:   1512   107.7    15.4   661.1  1033.1

Triples Correction (T)                     ...     -0.067977118
Final correlation energy                   ...     -1.464021007
E(CCSD)                                    ...   -308.899206944
E(CCSD(T))                                 ...   -308.967184062

NORM  =      1.463698283 sqrt=     1.209833990
W(HF) =      0.683200911
------------------------------------------------------------------------------
                           ORCA POPULATION ANALYSIS
------------------------------------------------------------------------------
Input electron density              ... /home/vladimir/git/private/ORCA/C8H8/cubane/optimize/CC/DLPNO_CCSDT/cc-pVQZ/./cubane.mdcip.tmp
BaseName (.gbw .S,...)              ... /home/vladimir/git/private/ORCA/C8H8/cubane/optimize/CC/DLPNO_CCSDT/cc-pVQZ/./cubane

Maximum memory used throughout the entire calculation: 1908.2 MB


------------------------------------------------------------------------------- 
                                     TIMINGS                                   
------------------------------------------------------------------------------- 


Total execution time                   ...     5342.411 sec

Localization of occupied MO's          ...        0.957 sec (  0.0%)
Fock Matrix Formation                  ...      429.013 sec (  8.0%)
Global overlap, Fock, MKN matrices     ...        0.302 sec (  0.0%)
Differential overlap integrals         ...        0.608 sec (  0.0%)
Organizing maps                        ...        0.056 sec (  0.0%)
RI 3-index integral generations        ...       37.156 sec (  0.7%)
RI-PNO integral transformation         ...     1031.245 sec ( 19.3%)
Initial Guess                          ...       65.301 sec (  1.2%)
DIIS Solver                            ...        0.111 sec (  0.0%)
State Vector Update                    ...        0.012 sec (  0.0%)
Sigma-vector construction              ...      335.373 sec (  6.3%)
  <0|H|D>                              ...        0.001 sec (  0.0% of sigma)
  <D|H|D>(0-ext)                       ...        6.411 sec (  1.9% of sigma)
  <D|H|D>(2-ext Fock)                  ...        0.026 sec (  0.0% of sigma)
  <D|H|D>(2-ext)                       ...      106.403 sec ( 31.7% of sigma)
  <D|H|D>(4-ext)                       ...       25.141 sec (  7.5% of sigma)
  <D|H|D>(4-ext-corr)                  ...      158.641 sec ( 47.3% of sigma)
  CCSD doubles correction              ...        0.277 sec (  0.1% of sigma)
  <S|H|S>                              ...        1.214 sec (  0.4% of sigma)
  <S|H|D>(1-ext)                       ...        0.528 sec (  0.2% of sigma)
  <D|H|S>(1-ext)                       ...        0.017 sec (  0.0% of sigma)
  <S|H|D>(3-ext)                       ...        0.751 sec (  0.2% of sigma)
  Fock-dressing                        ...       25.995 sec (  7.8% of sigma)
  Singles amplitudes                   ...        0.324 sec (  0.1% of sigma)
  (ik|jl)-dressing                     ...        3.489 sec (  1.0% of sigma)
  (ij|ab),(ia|jb)-dressing             ...        2.501 sec (  0.7% of sigma)
  Pair energies                        ...        0.009 sec (  0.0% of sigma)
Total Time for computing (T)           ...     3439.768 sec ( 64.4% of ALL)
One-particle density matrix            ...        1.877 sec (  0.0%)


-------------------------   --------------------
FINAL SINGLE POINT ENERGY      -308.967184062177
-------------------------   --------------------


                            ***************************************
                            *     ORCA property calculations      *
                            ***************************************

                                    ---------------------
                                    Active property flags
                                    ---------------------
   (+) Dipole Moment


------------------------------------------------------------------------------
                       ORCA ELECTRIC PROPERTIES CALCULATION
------------------------------------------------------------------------------

Dipole Moment Calculation                       ... on
Quadrupole Moment Calculation                   ... off
Polarizability Calculation                      ... off
GBWName                                         ... /home/vladimir/git/private/ORCA/C8H8/cubane/optimize/CC/DLPNO_CCSDT/cc-pVQZ/./cubane.gbw
Electron density file                           ... /home/vladimir/git/private/ORCA/C8H8/cubane/optimize/CC/DLPNO_CCSDT/cc-pVQZ/./cubane.scfp.tmp

-------------
DIPOLE MOMENT
-------------
                                X             Y             Z
Electronic contribution:      0.00000      -0.00000      -0.00000
Nuclear contribution   :      0.00000       0.00000       0.00000
                        -----------------------------------------
Total Dipole Moment    :      0.00000      -0.00000      -0.00000
                        -----------------------------------------
Magnitude (a.u.)       :      0.00000
Magnitude (Debye)      :      0.00000


                           *** MDCI DENSITY ***

------------------------------------------------------------------------------
                       ORCA ELECTRIC PROPERTIES CALCULATION
------------------------------------------------------------------------------

Dipole Moment Calculation                       ... on
Quadrupole Moment Calculation                   ... off
Polarizability Calculation                      ... off
GBWName                                         ... /home/vladimir/git/private/ORCA/C8H8/cubane/optimize/CC/DLPNO_CCSDT/cc-pVQZ/./cubane.gbw
Electron density file                           ... /home/vladimir/git/private/ORCA/C8H8/cubane/optimize/CC/DLPNO_CCSDT/cc-pVQZ/./cubane.mdcip.tmp

-------------
DIPOLE MOMENT
-------------
                                X             Y             Z
Electronic contribution:     -0.00000      -0.00000       0.00000
Nuclear contribution   :      0.00000       0.00000       0.00000
                        -----------------------------------------
Total Dipole Moment    :     -0.00000      -0.00000       0.00000
                        -----------------------------------------
Magnitude (a.u.)       :      0.00000
Magnitude (Debye)      :      0.00000

                              **** MULTIPLE XYZ DONE ***

                         SUMMARY OF THE CALCULATED SURFACE

-------------------------
MULTIPLE XYZ SCAN RESULTS
-------------------------

The Calculated Surface using the 'Actual Energy'
   1.00000000 -308.96693793
   2.00000000 -308.96693594
   3.00000000 -308.96690459
   4.00000000 -308.96705560
   5.00000000 -308.96708274
   6.00000000 -308.96708202
   7.00000000 -308.96710103
   8.00000000 -308.96715763
   9.00000000 -308.96718406

The Calculated Surface using the SCF energy
   1.00000000 -307.50350872
   2.00000000 -307.50334438
   3.00000000 -307.50314954
   4.00000000 -307.50349456
   5.00000000 -307.50336001
   6.00000000 -307.50319463
   7.00000000 -307.50340311
   8.00000000 -307.50329864
   9.00000000 -307.50316305

The Calculated Surface using the MDCI energy
   1.00000000 -308.96693793
   2.00000000 -308.96693594
   3.00000000 -308.96690459
   4.00000000 -308.96705560
   5.00000000 -308.96708274
   6.00000000 -308.96708202
   7.00000000 -308.96710103
   8.00000000 -308.96715763
   9.00000000 -308.96718406

The Calculated Surface using the MDCI energy minus triple correction
   1.00000000 -308.89918678
   2.00000000 -308.89914649
   3.00000000 -308.89907653
   4.00000000 -308.89923269
   5.00000000 -308.89922160
   6.00000000 -308.89917708
   7.00000000 -308.89920033
   8.00000000 -308.89921877
   9.00000000 -308.89920694


Timings for individual modules:

Sum of individual times         ...    53801.528 sec (= 896.692 min)
GTO integral calculation        ...       13.503 sec (=   0.225 min)   0.0 %
SCF iterations                  ...     7304.050 sec (= 121.734 min)  13.6 %
MDCI module                     ...    46483.975 sec (= 774.733 min)  86.4 %
                             ****ORCA TERMINATED NORMALLY****
TOTAL RUN TIME: 0 days 14 hours 56 minutes 46 seconds 544 msec
