 argument  1 = cubane.nw
                                         
                                         


              Northwest Computational Chemistry Package (NWChem) 6.6
              ------------------------------------------------------


                    Environmental Molecular Sciences Laboratory
                       Pacific Northwest National Laboratory
                                Richland, WA 99352

                              Copyright (c) 1994-2015
                       Pacific Northwest National Laboratory
                            Battelle Memorial Institute

             NWChem is an open-source computational chemistry package
                        distributed under the terms of the
                      Educational Community License (ECL) 2.0
             A copy of the license is included with this distribution
                              in the LICENSE.TXT file

                                  ACKNOWLEDGMENT
                                  --------------

            This software and its documentation were developed at the
            EMSL at Pacific Northwest National Laboratory, a multiprogram
            national laboratory, operated for the U.S. Department of Energy
            by Battelle under Contract Number DE-AC05-76RL01830. Support
            for this work was provided by the Department of Energy Office
            of Biological and Environmental Research, Office of Basic
            Energy Sciences, and the Office of Advanced Scientific Computing.


           Job information
           ---------------

    hostname        = testnode
    program         = nwchem
    date            = Mon Dec 12 20:04:44 2016

    compiled        = Mon_Feb_15_08:24:17_2016
    source          = /build/nwchem-MF0R1k/nwchem-6.6+r27746
    nwchem branch   = 6.6
    nwchem revision = 27746
    ga revision     = 10594
    input           = cubane.nw
    prefix          = cubane.
    data base       = ./cubane.db
    status          = startup
    nproc           =        1
    time left       =     -1s



           Memory information
           ------------------

    heap     =   13107194 doubles =    100.0 Mbytes
    stack    =  131071999 doubles =   1000.0 Mbytes
    global   =  131072000 doubles =   1000.0 Mbytes (distinct from heap & stack)
    total    =  275251193 doubles =   2100.0 Mbytes
    verify   = yes
    hardfail = no 


           Directory information
           ---------------------

  0 permanent = .
  0 scratch   = .




                                NWChem Input Module
                                -------------------


                     cubane MP2/cc-pVQZ geometry optimization
                     ----------------------------------------

 Scaling coordinates for geometry "geometry" by  1.889725989
 (inverse scale =  0.529177249)

 Turning off AUTOSYM since
 SYMMETRY directive was detected!


          ------
          auto-z
          ------


                             Geometry "geometry" -> ""
                             -------------------------

 Output coordinates in angstroms (scale by  1.889725989 to convert to a.u.)

  No.       Tag          Charge          X              Y              Z
 ---- ---------------- ---------- -------------- -------------- --------------
    1 H                    1.0000     1.41000000     1.41000000     1.41000000
    2 H                    1.0000    -1.41000000    -1.41000000     1.41000000
    3 H                    1.0000    -1.41000000     1.41000000    -1.41000000
    4 H                    1.0000     1.41000000    -1.41000000    -1.41000000
    5 H                    1.0000     1.41000000     1.41000000    -1.41000000
    6 H                    1.0000    -1.41000000    -1.41000000    -1.41000000
    7 H                    1.0000     1.41000000    -1.41000000     1.41000000
    8 H                    1.0000    -1.41000000     1.41000000     1.41000000
    9 C                    6.0000     0.78370000     0.78370000     0.78370000
   10 C                    6.0000    -0.78370000    -0.78370000     0.78370000
   11 C                    6.0000    -0.78370000     0.78370000    -0.78370000
   12 C                    6.0000     0.78370000    -0.78370000    -0.78370000
   13 C                    6.0000     0.78370000     0.78370000    -0.78370000
   14 C                    6.0000    -0.78370000    -0.78370000    -0.78370000
   15 C                    6.0000     0.78370000    -0.78370000     0.78370000
   16 C                    6.0000    -0.78370000     0.78370000     0.78370000

      Atomic Mass 
      ----------- 

      H                  1.007825
      C                 12.000000


 Effective nuclear repulsion energy (a.u.)     367.7141550408

            Nuclear Dipole moment (a.u.) 
            ----------------------------
        X                 Y               Z
 ---------------- ---------------- ----------------
     0.0000000000     0.0000000000     0.0000000000

      Symmetry information
      --------------------

 Group name              Oh       
 Group number             44
 Group order              48
 No. of unique centers     2

      Symmetry unique atoms

     1    9



                                Z-matrix (autoz)
                                -------- 

 Units are Angstrom for bonds and degrees for angles

      Type          Name      I     J     K     L     M      Value
      ----------- --------  ----- ----- ----- ----- ----- ----------
    1 Stretch                  1     9                       1.08478
    2 Stretch                  2    10                       1.08478
    3 Stretch                  3    11                       1.08478
    4 Stretch                  4    12                       1.08478
    5 Stretch                  5    13                       1.08478
    6 Stretch                  6    14                       1.08478
    7 Stretch                  7    15                       1.08478
    8 Stretch                  8    16                       1.08478
    9 Stretch                  9    13                       1.56740
   10 Stretch                  9    15                       1.56740
   11 Stretch                  9    16                       1.56740
   12 Stretch                 10    14                       1.56740
   13 Stretch                 10    15                       1.56740
   14 Stretch                 10    16                       1.56740
   15 Stretch                 11    13                       1.56740
   16 Stretch                 11    14                       1.56740
   17 Stretch                 11    16                       1.56740
   18 Stretch                 12    13                       1.56740
   19 Stretch                 12    14                       1.56740
   20 Stretch                 12    15                       1.56740
   21 Bend                     1     9    13               125.26439
   22 Bend                     1     9    15               125.26439
   23 Bend                     1     9    16               125.26439
   24 Bend                     2    10    14               125.26439
   25 Bend                     2    10    15               125.26439
   26 Bend                     2    10    16               125.26439
   27 Bend                     3    11    13               125.26439
   28 Bend                     3    11    14               125.26439
   29 Bend                     3    11    16               125.26439
   30 Bend                     4    12    13               125.26439
   31 Bend                     4    12    14               125.26439
   32 Bend                     4    12    15               125.26439
   33 Bend                     5    13     9               125.26439
   34 Bend                     5    13    11               125.26439
   35 Bend                     5    13    12               125.26439
   36 Bend                     6    14    10               125.26439
   37 Bend                     6    14    11               125.26439
   38 Bend                     6    14    12               125.26439
   39 Bend                     7    15     9               125.26439
   40 Bend                     7    15    10               125.26439
   41 Bend                     7    15    12               125.26439
   42 Bend                     8    16     9               125.26439
   43 Bend                     8    16    10               125.26439
   44 Bend                     8    16    11               125.26439
   45 Bend                     9    13    11                90.00000
   46 Bend                     9    13    12                90.00000
   47 Bend                     9    15    10                90.00000
   48 Bend                     9    15    12                90.00000
   49 Bend                     9    16    10                90.00000
   50 Bend                     9    16    11                90.00000
   51 Bend                    10    14    11                90.00000
   52 Bend                    10    14    12                90.00000
   53 Bend                    10    15    12                90.00000
   54 Bend                    10    16    11                90.00000
   55 Bend                    11    13    12                90.00000
   56 Bend                    11    14    12                90.00000
   57 Bend                    13     9    15                90.00000
   58 Bend                    13     9    16                90.00000
   59 Bend                    13    11    14                90.00000
   60 Bend                    13    11    16                90.00000
   61 Bend                    13    12    14                90.00000
   62 Bend                    13    12    15                90.00000
   63 Bend                    14    10    15                90.00000
   64 Bend                    14    10    16                90.00000
   65 Bend                    14    11    16                90.00000
   66 Bend                    14    12    15                90.00000
   67 Bend                    15     9    16                90.00000
   68 Bend                    15    10    16                90.00000
   69 Torsion                  1     9    13     5           0.00000
   70 Torsion                  1     9    13    11        -135.00000
   71 Torsion                  1     9    13    12         135.00000
   72 Torsion                  1     9    15     7           0.00000
   73 Torsion                  1     9    15    10         135.00000
   74 Torsion                  1     9    15    12        -135.00000
   75 Torsion                  1     9    16     8           0.00000
   76 Torsion                  1     9    16    10        -135.00000
   77 Torsion                  1     9    16    11         135.00000
   78 Torsion                  2    10    14     6           0.00000
   79 Torsion                  2    10    14    11         135.00000
   80 Torsion                  2    10    14    12        -135.00000
   81 Torsion                  2    10    15     7           0.00000
   82 Torsion                  2    10    15     9        -135.00000
   83 Torsion                  2    10    15    12         135.00000
   84 Torsion                  2    10    16     8           0.00000
   85 Torsion                  2    10    16     9         135.00000
   86 Torsion                  2    10    16    11        -135.00000
   87 Torsion                  3    11    13     5           0.00000
   88 Torsion                  3    11    13     9         135.00000
   89 Torsion                  3    11    13    12        -135.00000
   90 Torsion                  3    11    14     6           0.00000
   91 Torsion                  3    11    14    10        -135.00000
   92 Torsion                  3    11    14    12         135.00000
   93 Torsion                  3    11    16     8           0.00000
   94 Torsion                  3    11    16     9        -135.00000
   95 Torsion                  3    11    16    10         135.00000
   96 Torsion                  4    12    13     5           0.00000
   97 Torsion                  4    12    13     9        -135.00000
   98 Torsion                  4    12    13    11         135.00000
   99 Torsion                  4    12    14     6           0.00000
  100 Torsion                  4    12    14    10         135.00000
  101 Torsion                  4    12    14    11        -135.00000
  102 Torsion                  4    12    15     7           0.00000
  103 Torsion                  4    12    15     9         135.00000
  104 Torsion                  4    12    15    10        -135.00000
  105 Torsion                  5    13     9    15        -135.00000
  106 Torsion                  5    13     9    16         135.00000
  107 Torsion                  5    13    11    14         135.00000
  108 Torsion                  5    13    11    16        -135.00000
  109 Torsion                  5    13    12    14        -135.00000
  110 Torsion                  5    13    12    15         135.00000
  111 Torsion                  6    14    10    15         135.00000
  112 Torsion                  6    14    10    16        -135.00000
  113 Torsion                  6    14    11    13        -135.00000
  114 Torsion                  6    14    11    16         135.00000
  115 Torsion                  6    14    12    13         135.00000
  116 Torsion                  6    14    12    15        -135.00000
  117 Torsion                  7    15     9    13         135.00000
  118 Torsion                  7    15     9    16        -135.00000
  119 Torsion                  7    15    10    14        -135.00000
  120 Torsion                  7    15    10    16         135.00000
  121 Torsion                  7    15    12    13        -135.00000
  122 Torsion                  7    15    12    14         135.00000
  123 Torsion                  8    16     9    13        -135.00000
  124 Torsion                  8    16     9    15         135.00000
  125 Torsion                  8    16    10    14         135.00000
  126 Torsion                  8    16    10    15        -135.00000
  127 Torsion                  8    16    11    13         135.00000
  128 Torsion                  8    16    11    14        -135.00000
  129 Torsion                  9    13    11    14         -90.00000
  130 Torsion                  9    13    11    16           0.00000
  131 Torsion                  9    13    12    14          90.00000
  132 Torsion                  9    13    12    15           0.00000
  133 Torsion                  9    15    10    14          90.00000
  134 Torsion                  9    15    10    16           0.00000
  135 Torsion                  9    15    12    13           0.00000
  136 Torsion                  9    15    12    14         -90.00000
  137 Torsion                  9    16    10    14         -90.00000
  138 Torsion                  9    16    10    15           0.00000
  139 Torsion                  9    16    11    13           0.00000
  140 Torsion                  9    16    11    14          90.00000
  141 Torsion                 10    14    11    13          90.00000
  142 Torsion                 10    14    11    16           0.00000
  143 Torsion                 10    14    12    13         -90.00000
  144 Torsion                 10    14    12    15           0.00000
  145 Torsion                 10    15     9    13         -90.00000
  146 Torsion                 10    15     9    16           0.00000
  147 Torsion                 10    15    12    13          90.00000
  148 Torsion                 10    15    12    14           0.00000
  149 Torsion                 10    16     9    13          90.00000
  150 Torsion                 10    16     9    15           0.00000
  151 Torsion                 10    16    11    13         -90.00000
  152 Torsion                 10    16    11    14           0.00000
  153 Torsion                 11    13     9    15          90.00000
  154 Torsion                 11    13     9    16           0.00000
  155 Torsion                 11    13    12    14           0.00000
  156 Torsion                 11    13    12    15         -90.00000
  157 Torsion                 11    14    10    15         -90.00000
  158 Torsion                 11    14    10    16           0.00000
  159 Torsion                 11    14    12    13           0.00000
  160 Torsion                 11    14    12    15          90.00000
  161 Torsion                 11    16     9    13           0.00000
  162 Torsion                 11    16     9    15         -90.00000
  163 Torsion                 11    16    10    14           0.00000
  164 Torsion                 11    16    10    15          90.00000
  165 Torsion                 12    13     9    15           0.00000
  166 Torsion                 12    13     9    16         -90.00000
  167 Torsion                 12    13    11    14           0.00000
  168 Torsion                 12    13    11    16          90.00000
  169 Torsion                 12    14    10    15           0.00000
  170 Torsion                 12    14    10    16          90.00000
  171 Torsion                 12    14    11    13           0.00000
  172 Torsion                 12    14    11    16         -90.00000
  173 Torsion                 12    15     9    13           0.00000
  174 Torsion                 12    15     9    16          90.00000
  175 Torsion                 12    15    10    14           0.00000
  176 Torsion                 12    15    10    16         -90.00000


            XYZ format geometry
            -------------------
    16
 geometry
 H                     1.41000000     1.41000000     1.41000000
 H                    -1.41000000    -1.41000000     1.41000000
 H                    -1.41000000     1.41000000    -1.41000000
 H                     1.41000000    -1.41000000    -1.41000000
 H                     1.41000000     1.41000000    -1.41000000
 H                    -1.41000000    -1.41000000    -1.41000000
 H                     1.41000000    -1.41000000     1.41000000
 H                    -1.41000000     1.41000000     1.41000000
 C                     0.78370000     0.78370000     0.78370000
 C                    -0.78370000    -0.78370000     0.78370000
 C                    -0.78370000     0.78370000    -0.78370000
 C                     0.78370000    -0.78370000    -0.78370000
 C                     0.78370000     0.78370000    -0.78370000
 C                    -0.78370000    -0.78370000    -0.78370000
 C                     0.78370000    -0.78370000     0.78370000
 C                    -0.78370000     0.78370000     0.78370000

 ==============================================================================
                                internuclear distances
 ------------------------------------------------------------------------------
       center one      |      center two      | atomic units |  angstroms
 ------------------------------------------------------------------------------
    9 C                |   1 H                |     2.04994  |     1.08478
   10 C                |   2 H                |     2.04994  |     1.08478
   11 C                |   3 H                |     2.04994  |     1.08478
   12 C                |   4 H                |     2.04994  |     1.08478
   13 C                |   5 H                |     2.04994  |     1.08478
   13 C                |   9 C                |     2.96196  |     1.56740
   13 C                |  11 C                |     2.96196  |     1.56740
   13 C                |  12 C                |     2.96196  |     1.56740
   14 C                |   6 H                |     2.04994  |     1.08478
   14 C                |  10 C                |     2.96196  |     1.56740
   14 C                |  11 C                |     2.96196  |     1.56740
   14 C                |  12 C                |     2.96196  |     1.56740
   15 C                |   7 H                |     2.04994  |     1.08478
   15 C                |   9 C                |     2.96196  |     1.56740
   15 C                |  10 C                |     2.96196  |     1.56740
   15 C                |  12 C                |     2.96196  |     1.56740
   16 C                |   8 H                |     2.04994  |     1.08478
   16 C                |   9 C                |     2.96196  |     1.56740
   16 C                |  10 C                |     2.96196  |     1.56740
   16 C                |  11 C                |     2.96196  |     1.56740
 ------------------------------------------------------------------------------
                         number of included internuclear distances:         20
 ==============================================================================



 ==============================================================================
                                 internuclear angles
 ------------------------------------------------------------------------------
        center 1       |       center 2       |       center 3       |  degrees
 ------------------------------------------------------------------------------
    1 H                |   9 C                |  13 C                |   125.26
    1 H                |   9 C                |  15 C                |   125.26
    1 H                |   9 C                |  16 C                |   125.26
   13 C                |   9 C                |  15 C                |    90.00
   13 C                |   9 C                |  16 C                |    90.00
   15 C                |   9 C                |  16 C                |    90.00
    2 H                |  10 C                |  14 C                |   125.26
    2 H                |  10 C                |  15 C                |   125.26
    2 H                |  10 C                |  16 C                |   125.26
   14 C                |  10 C                |  15 C                |    90.00
   14 C                |  10 C                |  16 C                |    90.00
   15 C                |  10 C                |  16 C                |    90.00
    3 H                |  11 C                |  13 C                |   125.26
    3 H                |  11 C                |  14 C                |   125.26
    3 H                |  11 C                |  16 C                |   125.26
   13 C                |  11 C                |  14 C                |    90.00
   13 C                |  11 C                |  16 C                |    90.00
   14 C                |  11 C                |  16 C                |    90.00
    4 H                |  12 C                |  13 C                |   125.26
    4 H                |  12 C                |  14 C                |   125.26
    4 H                |  12 C                |  15 C                |   125.26
   13 C                |  12 C                |  14 C                |    90.00
   13 C                |  12 C                |  15 C                |    90.00
   14 C                |  12 C                |  15 C                |    90.00
    5 H                |  13 C                |   9 C                |   125.26
    5 H                |  13 C                |  11 C                |   125.26
    5 H                |  13 C                |  12 C                |   125.26
    9 C                |  13 C                |  11 C                |    90.00
    9 C                |  13 C                |  12 C                |    90.00
   11 C                |  13 C                |  12 C                |    90.00
    6 H                |  14 C                |  10 C                |   125.26
    6 H                |  14 C                |  11 C                |   125.26
    6 H                |  14 C                |  12 C                |   125.26
   10 C                |  14 C                |  11 C                |    90.00
   10 C                |  14 C                |  12 C                |    90.00
   11 C                |  14 C                |  12 C                |    90.00
    7 H                |  15 C                |   9 C                |   125.26
    7 H                |  15 C                |  10 C                |   125.26
    7 H                |  15 C                |  12 C                |   125.26
    9 C                |  15 C                |  10 C                |    90.00
    9 C                |  15 C                |  12 C                |    90.00
   10 C                |  15 C                |  12 C                |    90.00
    8 H                |  16 C                |   9 C                |   125.26
    8 H                |  16 C                |  10 C                |   125.26
    8 H                |  16 C                |  11 C                |   125.26
    9 C                |  16 C                |  10 C                |    90.00
    9 C                |  16 C                |  11 C                |    90.00
   10 C                |  16 C                |  11 C                |    90.00
 ------------------------------------------------------------------------------
                            number of included internuclear angles:         48
 ==============================================================================



                      Basis "ao basis" -> "" (spherical)
                      -----
  H (Hydrogen)
  ------------
            Exponent  Coefficients 
       -------------- ---------------------------------------------------------
  1 S  8.26400000E+01  0.002006
  1 S  1.24100000E+01  0.015343
  1 S  2.82400000E+00  0.075579

  2 S  7.97700000E-01  1.000000

  3 S  2.58100000E-01  1.000000

  4 S  8.98900000E-02  1.000000

  5 P  2.29200000E+00  1.000000

  6 P  8.38000000E-01  1.000000

  7 P  2.92000000E-01  1.000000

  8 D  2.06200000E+00  1.000000

  9 D  6.62000000E-01  1.000000

 10 F  1.39700000E+00  1.000000

  C (Carbon)
  ----------
            Exponent  Coefficients 
       -------------- ---------------------------------------------------------
  1 S  3.39800000E+04  0.000091
  1 S  5.08900000E+03  0.000704
  1 S  1.15700000E+03  0.003693
  1 S  3.26600000E+02  0.015360
  1 S  1.06100000E+02  0.052929
  1 S  3.81100000E+01  0.147043
  1 S  1.47500000E+01  0.305631
  1 S  6.03500000E+00  0.399345
  1 S  2.53000000E+00  0.217051

  2 S  3.39800000E+04 -0.000019
  2 S  5.08900000E+03 -0.000151
  2 S  1.15700000E+03 -0.000785
  2 S  3.26600000E+02 -0.003324
  2 S  1.06100000E+02 -0.011512
  2 S  3.81100000E+01 -0.034160
  2 S  1.47500000E+01 -0.077173
  2 S  6.03500000E+00 -0.141493
  2 S  2.53000000E+00 -0.118019

  3 S  7.35500000E-01  1.000000

  4 S  2.90500000E-01  1.000000

  5 S  1.11100000E-01  1.000000

  6 P  3.45100000E+01  0.005378
  6 P  7.91500000E+00  0.036132
  6 P  2.36800000E+00  0.142493

  7 P  8.13200000E-01  1.000000

  8 P  2.89000000E-01  1.000000

  9 P  1.00700000E-01  1.000000

 10 D  1.84800000E+00  1.000000

 11 D  6.49000000E-01  1.000000

 12 D  2.28000000E-01  1.000000

 13 F  1.41900000E+00  1.000000

 14 F  4.85000000E-01  1.000000

 15 G  1.01100000E+00  1.000000



 Summary of "ao basis" -> "" (spherical)
 ------------------------------------------------------------------------------
       Tag                 Description            Shells   Functions and Types
 ---------------- ------------------------------  ------  ---------------------
 H                          cc-pVQZ                 10       30   4s3p2d1f
 C                          cc-pVQZ                 15       55   5s4p3d2f1g




                           NWChem Geometry Optimization
                           ----------------------------




                     cubane MP2/cc-pVQZ geometry optimization


 maximum gradient threshold         (gmax) =   0.000450
 rms gradient threshold             (grms) =   0.000300
 maximum cartesian step threshold   (xmax) =   0.001800
 rms cartesian step threshold       (xrms) =   0.001200
 fixed trust radius                (trust) =   0.300000
 maximum step size to saddle      (sadstp) =   0.100000
 energy precision                  (eprec) =   1.0D-07
 maximum number of steps          (nptopt) =   20
 initial hessian option           (inhess) =    0
 line search option               (linopt) =    1
 hessian update option            (modupd) =    1
 saddle point option              (modsad) =    0
 initial eigen-mode to follow     (moddir) =    0
 initial variable to follow       (vardir) =    0
 follow first negative mode     (firstneg) =    T
 apply conjugacy                    (opcg) =    F
 source of zmatrix                         =   autoz   


          -------------------
          Energy Minimization
          -------------------


 Names of Z-matrix variables 
    1              2              3              4              5         
    6              7              8              9             10         
   11             12             13             14             15         
   16             17             18             19             20         
   21             22             23             24             25         
   26             27             28             29             30         
   31             32             33             34             35         
   36             37             38             39             40         
   41             42             43             44             45         
   46             47             48             49             50         
   51             52             53             54             55         
   56             57             58             59             60         
   61             62             63             64             65         
   66             67             68             69             70         
   71             72             73             74             75         
   76             77             78             79             80         
   81             82             83             84             85         
   86             87             88             89             90         
   91             92             93             94             95         
   96             97             98             99            100         
  101            102            103            104            105         
  106            107            108            109            110         
  111            112            113            114            115         
  116            117            118            119            120         
  121            122            123            124            125         
  126            127            128            129            130         
  131            132            133            134            135         
  136            137            138            139            140         
  141            142            143            144            145         
  146            147            148            149            150         
  151            152            153            154            155         
  156            157            158            159            160         
  161            162            163            164            165         
  166            167            168            169            170         
  171            172            173            174            175         
  176         

 Variables with the same non-blank name are constrained to be equal


 Using diagonal initial Hessian 
 Scaling for Hessian diagonals: bonds = 1.00  angles = 0.25  torsions = 0.10

          --------
          Step   0
          --------


                         Geometry "geometry" -> "geometry"
                         ---------------------------------

 Output coordinates in angstroms (scale by  1.889725989 to convert to a.u.)

  No.       Tag          Charge          X              Y              Z
 ---- ---------------- ---------- -------------- -------------- --------------
    1 H                    1.0000     1.41000000     1.41000000     1.41000000
    2 H                    1.0000    -1.41000000    -1.41000000     1.41000000
    3 H                    1.0000    -1.41000000     1.41000000    -1.41000000
    4 H                    1.0000     1.41000000    -1.41000000    -1.41000000
    5 H                    1.0000     1.41000000     1.41000000    -1.41000000
    6 H                    1.0000    -1.41000000    -1.41000000    -1.41000000
    7 H                    1.0000     1.41000000    -1.41000000     1.41000000
    8 H                    1.0000    -1.41000000     1.41000000     1.41000000
    9 C                    6.0000     0.78370000     0.78370000     0.78370000
   10 C                    6.0000    -0.78370000    -0.78370000     0.78370000
   11 C                    6.0000    -0.78370000     0.78370000    -0.78370000
   12 C                    6.0000     0.78370000    -0.78370000    -0.78370000
   13 C                    6.0000     0.78370000     0.78370000    -0.78370000
   14 C                    6.0000    -0.78370000    -0.78370000    -0.78370000
   15 C                    6.0000     0.78370000    -0.78370000     0.78370000
   16 C                    6.0000    -0.78370000     0.78370000     0.78370000

      Atomic Mass 
      ----------- 

      H                  1.007825
      C                 12.000000


 Effective nuclear repulsion energy (a.u.)     367.7141550408

            Nuclear Dipole moment (a.u.) 
            ----------------------------
        X                 Y               Z
 ---------------- ---------------- ----------------
     0.0000000000     0.0000000000     0.0000000000

      Symmetry information
      --------------------

 Group name              Oh       
 Group number             44
 Group order              48
 No. of unique centers     2

      Symmetry unique atoms

     1    9

                                 NWChem SCF Module
                                 -----------------


                     cubane MP2/cc-pVQZ geometry optimization



  ao basis        = "ao basis"
  functions       =   680
  atoms           =    16
  closed shells   =    28
  open shells     =     0
  charge          =   0.00
  wavefunction    = RHF 
  input vectors   = atomic
  output vectors  = ./cubane.movecs
  use symmetry    = T
  symmetry adapt  = T


 Summary of "ao basis" -> "ao basis" (spherical)
 ------------------------------------------------------------------------------
       Tag                 Description            Shells   Functions and Types
 ---------------- ------------------------------  ------  ---------------------
 H                          cc-pVQZ                 10       30   4s3p2d1f
 C                          cc-pVQZ                 15       55   5s4p3d2f1g


      Symmetry analysis of basis
      --------------------------

        a1g        29
        a1u         4
        a2g         4
        a2u        29
        eg         52
        eu         52
        t1g        90
        t1u       165
        t2g       165
        t2u        90


 Forming initial guess at       1.7s


 !! The overlap matrix has   1 vectors deemed linearly dependent with
    eigenvalues:
 1.24D-06


      Superposition of Atomic Density Guess
      -------------------------------------

 Sum of atomic energies:        -305.37628087

      Non-variational initial energy
      ------------------------------

 Total energy =    -311.939163
 1-e energy   =   -1138.239244
 2-e energy   =     458.585926
 HOMO         =      -0.296491
 LUMO         =       0.033015


      Symmetry analysis of molecular orbitals - initial
      -------------------------------------------------

  Numbering of irreducible representations: 

     1 a1g         2 a1u         3 a2g         4 a2u         5 eg      
     6 eu          7 t1g         8 t1u         9 t2g        10 t2u     

  Orbital symmetries:

     1 a1g         2 t1u         3 t1u         4 t1u         5 t2g     
     6 t2g         7 t2g         8 a2u         9 a1g        10 t1u     
    11 t1u        12 t1u        13 t2g        14 t2g        15 t2g     
    16 a1g        17 a2u        18 eg         19 eg         20 t1u     
    21 t1u        22 t1u        23 t2u        24 t2u        25 t2u     
    26 t2g        27 t2g        28 t2g        29 t1u        30 t1u     
    31 t1u        32 a1g        33 t2g        34 t2g        35 t2g     
    36 t1u        37 t1u        38 t1u     


 Starting SCF solution at      57.4s



 ----------------------------------------------
         Quadratically convergent ROHF

 Convergence threshold     :          1.000E-06
 Maximum no. of iterations :           30
 Final Fock-matrix accuracy:          1.000E-10
 ----------------------------------------------


              iter       energy          gnorm     gmax       time
             ----- ------------------- --------- --------- --------
                 1     -307.4146883680  9.96D-01  2.30D-01    109.8
                 2     -307.4943952866  3.21D-01  4.04D-02    166.9
                 3     -307.5030829879  9.68D-03  1.50D-03    324.4
                 4     -307.5030938780  1.66D-05  2.74D-06    577.2
                 5     -307.5030938781  2.51D-08  5.06D-09    829.8


       Final RHF  results 
       ------------------ 

         Total SCF energy =   -307.503093878137
      One-electron energy =  -1144.828356483566
      Two-electron energy =    469.611107564627
 Nuclear repulsion energy =    367.714155040802

        Time for solution =    776.2s



       Symmetry analysis of molecular orbitals - final
       -----------------------------------------------

  Numbering of irreducible representations: 

     1 a1g         2 a1u         3 a2g         4 a2u         5 eg      
     6 eu          7 t1g         8 t1u         9 t2g        10 t2u     

  Orbital symmetries:

     1 a1g         2 t1u         3 t1u         4 t1u         5 t2g     
     6 t2g         7 t2g         8 a2u         9 a1g        10 t1u     
    11 t1u        12 t1u        13 t2g        14 t2g        15 t2g     
    16 a1g        17 a2u        18 t1u        19 t1u        20 t1u     
    21 eg         22 eg         23 t2u        24 t2u        25 t2u     
    26 t2g        27 t2g        28 t2g        29 a1g        30 t1u     
    31 t1u        32 t1u        33 t2g        34 t2g        35 t2g     
    36 a2u        37 t1u        38 t1u     

             Final eigenvalues
             -----------------

              1      
    1  -11.2199
    2  -11.2194
    3  -11.2194
    4  -11.2194
    5  -11.2189
    6  -11.2189
    7  -11.2189
    8  -11.2184
    9   -1.2427
   10   -0.9777
   11   -0.9777
   12   -0.9777
   13   -0.7677
   14   -0.7677
   15   -0.7677
   16   -0.7104
   17   -0.6419
   18   -0.5802
   19   -0.5802
   20   -0.5802
   21   -0.5789
   22   -0.5789
   23   -0.3901
   24   -0.3901
   25   -0.3901
   26   -0.3833
   27   -0.3833
   28   -0.3833
   29    0.1165
   30    0.1312
   31    0.1312
   32    0.1312
   33    0.1609
   34    0.1609
   35    0.1609
   36    0.1943
   37    0.1972
   38    0.1972

                       ROHF Final Molecular Orbital Analysis
                       -------------------------------------

 Vector    9  Occ=2.000000D+00  E=-1.242730D+00  Symmetry=a1g
              MO Center= -4.2D-17, -2.4D-15, -2.7D-15, r^2= 1.7D+00
   Bfn.  Coefficient  Atom+Function         Bfn.  Coefficient  Atom+Function  
  ----- ------------  ---------------      ----- ------------  ---------------
   244      0.140578   9 C  s               299      0.140578  10 C  s         
   354      0.140578  11 C  s               409      0.140578  12 C  s         
   464      0.140578  13 C  s               519      0.140578  14 C  s         
   574      0.140578  15 C  s               629      0.140578  16 C  s         

 Vector   10  Occ=2.000000D+00  E=-9.776512D-01  Symmetry=t1u
              MO Center=  5.4D-16,  1.2D-16, -6.1D-16, r^2= 2.6D+00
   Bfn.  Coefficient  Atom+Function         Bfn.  Coefficient  Atom+Function  
  ----- ------------  ---------------      ----- ------------  ---------------
   299      0.233110  10 C  s               464     -0.233110  13 C  s         
   409     -0.180387  12 C  s               629      0.180387  16 C  s         
   297      0.156456  10 C  s               462     -0.156456  13 C  s         

 Vector   11  Occ=2.000000D+00  E=-9.776512D-01  Symmetry=t1u
              MO Center= -8.7D-18,  2.0D-16,  9.8D-18, r^2= 2.6D+00
   Bfn.  Coefficient  Atom+Function         Bfn.  Coefficient  Atom+Function  
  ----- ------------  ---------------      ----- ------------  ---------------
   409      0.183843  12 C  s               629     -0.183843  16 C  s         
   244     -0.161727   9 C  s               519      0.161727  14 C  s         

 Vector   12  Occ=2.000000D+00  E=-9.776512D-01  Symmetry=t1u
              MO Center=  8.6D-15,  1.1D-14,  3.6D-15, r^2= 2.6D+00
   Bfn.  Coefficient  Atom+Function         Bfn.  Coefficient  Atom+Function  
  ----- ------------  ---------------      ----- ------------  ---------------
   354     -0.214538  11 C  s               574      0.214538  15 C  s         
   244      0.204777   9 C  s               519     -0.204777  14 C  s         

 Vector   13  Occ=2.000000D+00  E=-7.677257D-01  Symmetry=t2g
              MO Center=  1.1D-16, -2.2D-16,  2.3D-16, r^2= 4.1D+00
   Bfn.  Coefficient  Atom+Function         Bfn.  Coefficient  Atom+Function  
  ----- ------------  ---------------      ----- ------------  ---------------
   354      0.238698  11 C  s               574      0.238698  15 C  s         
   355      0.221397  11 C  s               575      0.221397  15 C  s         

 Vector   14  Occ=2.000000D+00  E=-7.677257D-01  Symmetry=t2g
              MO Center=  1.3D-15,  6.4D-15,  2.1D-15, r^2= 4.1D+00
   Bfn.  Coefficient  Atom+Function         Bfn.  Coefficient  Atom+Function  
  ----- ------------  ---------------      ----- ------------  ---------------
   409      0.221906  12 C  s               629      0.221906  16 C  s         
   410      0.205822  12 C  s               630      0.205822  16 C  s         
   299     -0.171113  10 C  s               464     -0.171113  13 C  s         
   300     -0.158710  10 C  s               465     -0.158710  13 C  s         

 Vector   15  Occ=2.000000D+00  E=-7.677257D-01  Symmetry=t2g
              MO Center=  3.7D-14, -1.7D-14, -1.7D-14, r^2= 4.1D+00
   Bfn.  Coefficient  Atom+Function         Bfn.  Coefficient  Atom+Function  
  ----- ------------  ---------------      ----- ------------  ---------------
   244      0.191590   9 C  s               519      0.191590  14 C  s         
   299     -0.188736  10 C  s               464     -0.188736  13 C  s         
   245      0.177704   9 C  s               520      0.177704  14 C  s         
   300     -0.175056  10 C  s               465     -0.175056  13 C  s         

 Vector   16  Occ=2.000000D+00  E=-7.104034D-01  Symmetry=a1g
              MO Center= -5.6D-16,  9.7D-17,  1.2D-15, r^2= 4.3D+00
   Bfn.  Coefficient  Atom+Function         Bfn.  Coefficient  Atom+Function  
  ----- ------------  ---------------      ----- ------------  ---------------
     3      0.074071   1 H  s                33      0.074071   2 H  s         
    63      0.074071   3 H  s                93      0.074071   4 H  s         
   123      0.074071   5 H  s               153      0.074071   6 H  s         
   183      0.074071   7 H  s               213      0.074071   8 H  s         

 Vector   17  Occ=2.000000D+00  E=-6.419046D-01  Symmetry=a2u
              MO Center=  6.6D-15,  2.3D-14, -6.3D-15, r^2= 5.1D+00
   Bfn.  Coefficient  Atom+Function         Bfn.  Coefficient  Atom+Function  
  ----- ------------  ---------------      ----- ------------  ---------------
   244      0.114085   9 C  s               299      0.114085  10 C  s         
   354      0.114085  11 C  s               409      0.114085  12 C  s         
   464     -0.114085  13 C  s               519     -0.114085  14 C  s         
   574     -0.114085  15 C  s               629     -0.114085  16 C  s         

 Vector   18  Occ=2.000000D+00  E=-5.802066D-01  Symmetry=t1u
              MO Center= -4.6D-16, -2.6D-16,  1.1D-16, r^2= 4.2D+00
   Bfn.  Coefficient  Atom+Function         Bfn.  Coefficient  Atom+Function  
  ----- ------------  ---------------      ----- ------------  ---------------
    63      0.114573   3 H  s               183     -0.114573   7 H  s         
   362     -0.109304  11 C  px              582     -0.109304  15 C  px        

 Vector   19  Occ=2.000000D+00  E=-5.802066D-01  Symmetry=t1u
              MO Center= -2.4D-14, -1.6D-14,  1.3D-15, r^2= 4.2D+00
   Bfn.  Coefficient  Atom+Function         Bfn.  Coefficient  Atom+Function  
  ----- ------------  ---------------      ----- ------------  ---------------
    33      0.096823   2 H  s               123     -0.096823   5 H  s         
   308     -0.094574  10 C  py              473     -0.094574  13 C  py        
   309      0.091752  10 C  pz              474      0.091752  13 C  pz        

 Vector   20  Occ=2.000000D+00  E=-5.802066D-01  Symmetry=t1u
              MO Center=  8.4D-15,  3.3D-15,  2.6D-15, r^2= 4.2D+00
   Bfn.  Coefficient  Atom+Function         Bfn.  Coefficient  Atom+Function  
  ----- ------------  ---------------      ----- ------------  ---------------
     3      0.108495   1 H  s               153     -0.108495   6 H  s         
   252      0.108488   9 C  px              527      0.108488  14 C  px        
   417     -0.102355  12 C  px              637     -0.102355  16 C  px        

 Vector   21  Occ=2.000000D+00  E=-5.788782D-01  Symmetry=eg
              MO Center=  1.4D-16, -2.8D-17,  2.4D-16, r^2= 2.6D+00
   Bfn.  Coefficient  Atom+Function         Bfn.  Coefficient  Atom+Function  
  ----- ------------  ---------------      ----- ------------  ---------------
   252      0.104959   9 C  px              307     -0.104959  10 C  px        
   362     -0.104959  11 C  px              417      0.104959  12 C  px        
   472      0.104959  13 C  px              527     -0.104959  14 C  px        
   582      0.104959  15 C  px              637     -0.104959  16 C  px        

 Vector   22  Occ=2.000000D+00  E=-5.788782D-01  Symmetry=eg
              MO Center=  9.6D-16, -2.9D-16,  9.6D-16, r^2= 2.6D+00
   Bfn.  Coefficient  Atom+Function         Bfn.  Coefficient  Atom+Function  
  ----- ------------  ---------------      ----- ------------  ---------------
   254     -0.091375   9 C  pz              309     -0.091375  10 C  pz        
   364      0.091375  11 C  pz              419      0.091375  12 C  pz        
   474      0.091375  13 C  pz              529      0.091375  14 C  pz        
   584     -0.091375  15 C  pz              639     -0.091375  16 C  pz        
   253      0.090420   9 C  py              308     -0.090420  10 C  py        

 Vector   23  Occ=2.000000D+00  E=-3.901352D-01  Symmetry=t2u
              MO Center=  5.4D-15,  9.2D-16,  2.2D-15, r^2= 2.9D+00
   Bfn.  Coefficient  Atom+Function         Bfn.  Coefficient  Atom+Function  
  ----- ------------  ---------------      ----- ------------  ---------------
   252      0.148753   9 C  px              417     -0.148753  12 C  px        
   527      0.148753  14 C  px              637     -0.148753  16 C  px        

 Vector   24  Occ=2.000000D+00  E=-3.901352D-01  Symmetry=t2u
              MO Center= -9.4D-16,  5.2D-16, -1.9D-15, r^2= 2.9D+00
   Bfn.  Coefficient  Atom+Function         Bfn.  Coefficient  Atom+Function  
  ----- ------------  ---------------      ----- ------------  ---------------
   254     -0.131108   9 C  pz              309      0.131108  10 C  pz        
   474      0.131108  13 C  pz              529     -0.131108  14 C  pz        
   253      0.129136   9 C  py              363     -0.129136  11 C  py        
   528      0.129136  14 C  py              583     -0.129136  15 C  py        

 Vector   25  Occ=2.000000D+00  E=-3.901352D-01  Symmetry=t2u
              MO Center= -1.4D-16,  4.7D-16, -1.5D-15, r^2= 2.9D+00
   Bfn.  Coefficient  Atom+Function         Bfn.  Coefficient  Atom+Function  
  ----- ------------  ---------------      ----- ------------  ---------------
   308      0.144667  10 C  py              418     -0.144667  12 C  py        
   473      0.144667  13 C  py              638     -0.144667  16 C  py        

 Vector   26  Occ=2.000000D+00  E=-3.832565D-01  Symmetry=t2g
              MO Center=  2.5D-16,  2.9D-16,  1.3D-15, r^2= 3.5D+00
   Bfn.  Coefficient  Atom+Function         Bfn.  Coefficient  Atom+Function  
  ----- ------------  ---------------      ----- ------------  ---------------
   253      0.137795   9 C  py              528     -0.137795  14 C  py        
   308      0.136109  10 C  py              473     -0.136109  13 C  py        
   418      0.135112  12 C  py              638     -0.135112  16 C  py        
   363      0.133427  11 C  py              583     -0.133427  15 C  py        

 Vector   27  Occ=2.000000D+00  E=-3.832565D-01  Symmetry=t2g
              MO Center= -3.9D-15,  1.8D-14,  1.1D-14, r^2= 3.5D+00
   Bfn.  Coefficient  Atom+Function         Bfn.  Coefficient  Atom+Function  
  ----- ------------  ---------------      ----- ------------  ---------------
   362      0.137908  11 C  px              582     -0.137908  15 C  px        
   252      0.134974   9 C  px              527     -0.134974  14 C  px        
   417      0.132412  12 C  px              637     -0.132412  16 C  px        
   307      0.129478  10 C  px              472     -0.129478  13 C  px        

 Vector   28  Occ=2.000000D+00  E=-3.832565D-01  Symmetry=t2g
              MO Center=  2.2D-14,  1.0D-14,  1.8D-14, r^2= 3.5D+00
   Bfn.  Coefficient  Atom+Function         Bfn.  Coefficient  Atom+Function  
  ----- ------------  ---------------      ----- ------------  ---------------
   309      0.137489  10 C  pz              474     -0.137489  13 C  pz        
   419      0.136293  12 C  pz              639     -0.136293  16 C  pz        
   364      0.131866  11 C  pz              584     -0.131866  15 C  pz        
   254      0.130671   9 C  pz              529     -0.130671  14 C  pz        

 Vector   29  Occ=0.000000D+00  E= 1.165120D-01  Symmetry=a1g
              MO Center= -1.4D-14, -4.1D-15,  6.7D-15, r^2= 1.5D+01
   Bfn.  Coefficient  Atom+Function         Bfn.  Coefficient  Atom+Function  
  ----- ------------  ---------------      ----- ------------  ---------------
     4      1.376799   1 H  s                34      1.376799   2 H  s         
    64      1.376799   3 H  s                94      1.376799   4 H  s         
   124      1.376799   5 H  s               154      1.376799   6 H  s         
   184      1.376799   7 H  s               214      1.376799   8 H  s         
   245     -1.150056   9 C  s               300     -1.150056  10 C  s         

 Vector   30  Occ=0.000000D+00  E= 1.312058D-01  Symmetry=t1u
              MO Center= -9.2D-15,  1.9D-14,  3.6D-15, r^2= 1.3D+01
   Bfn.  Coefficient  Atom+Function         Bfn.  Coefficient  Atom+Function  
  ----- ------------  ---------------      ----- ------------  ---------------
   300      2.637183  10 C  s               465     -2.637183  13 C  s         
    34     -2.363535   2 H  s               124      2.363535   5 H  s         
   299      1.332778  10 C  s               464     -1.332778  13 C  s         
   245     -1.252869   9 C  s               520      1.252869  14 C  s         
     4      1.122865   1 H  s               154     -1.122865   6 H  s         

 Vector   31  Occ=0.000000D+00  E= 1.312058D-01  Symmetry=t1u
              MO Center= -1.2D-13, -4.7D-14, -2.9D-14, r^2= 1.3D+01
   Bfn.  Coefficient  Atom+Function         Bfn.  Coefficient  Atom+Function  
  ----- ------------  ---------------      ----- ------------  ---------------
   245      2.371273   9 C  s               520     -2.371273  14 C  s         
     4     -2.125217   1 H  s               154      2.125217   6 H  s         
   410     -1.569886  12 C  s               630      1.569886  16 C  s         
    94      1.406986   4 H  s               214     -1.406986   8 H  s         
   355     -1.241401  11 C  s               575      1.241401  15 C  s         

 Vector   32  Occ=0.000000D+00  E= 1.312058D-01  Symmetry=t1u
              MO Center=  1.7D-14, -2.5D-14,  1.3D-14, r^2= 1.3D+01
   Bfn.  Coefficient  Atom+Function         Bfn.  Coefficient  Atom+Function  
  ----- ------------  ---------------      ----- ------------  ---------------
   410     -2.196277  12 C  s               630      2.196277  16 C  s         
   355      2.146217  11 C  s               575     -2.146217  15 C  s         
    94      1.968380   4 H  s               214     -1.968380   8 H  s         
    64     -1.923515   3 H  s               184      1.923515   7 H  s         
   409     -1.109953  12 C  s               629      1.109953  16 C  s         

 Vector   33  Occ=0.000000D+00  E= 1.608921D-01  Symmetry=t2g
              MO Center= -3.0D-14, -7.3D-14, -7.2D-14, r^2= 1.7D+01
   Bfn.  Coefficient  Atom+Function         Bfn.  Coefficient  Atom+Function  
  ----- ------------  ---------------      ----- ------------  ---------------
    34      4.619345   2 H  s               124      4.619345   5 H  s         
   300      4.141475  10 C  s               465      4.141475  13 C  s         
   310      4.020797  10 C  px              475     -4.020797  13 C  px        
   311      3.878854  10 C  py              476     -3.878854  13 C  py        
   312     -3.736553  10 C  pz              477      3.736553  13 C  pz        

 Vector   34  Occ=0.000000D+00  E= 1.608921D-01  Symmetry=t2g
              MO Center=  2.4D-13,  1.0D-13,  1.8D-14, r^2= 1.7D+01
   Bfn.  Coefficient  Atom+Function         Bfn.  Coefficient  Atom+Function  
  ----- ------------  ---------------      ----- ------------  ---------------
    94     -4.064403   4 H  s               214     -4.064403   8 H  s         
     4      3.731443   1 H  s               154      3.731443   6 H  s         
   410     -3.643941  12 C  s               422     -3.630358  12 C  pz        
   630     -3.643941  16 C  s               642      3.630358  16 C  pz        
   421     -3.473864  12 C  py              641      3.473864  16 C  py        

 Vector   35  Occ=0.000000D+00  E= 1.608921D-01  Symmetry=t2g
              MO Center= -8.7D-13,  3.0D-13, -3.8D-14, r^2= 1.7D+01
   Bfn.  Coefficient  Atom+Function         Bfn.  Coefficient  Atom+Function  
  ----- ------------  ---------------      ----- ------------  ---------------
    64      4.814890   3 H  s               184      4.814890   7 H  s         
   355      4.316791  11 C  s               575      4.316791  15 C  s         
   365      4.087120  11 C  px              585     -4.087120  15 C  px        
   366     -4.063523  11 C  py              586      4.063523  15 C  py        
   367      3.978142  11 C  pz              587     -3.978142  15 C  pz        

 Vector   36  Occ=0.000000D+00  E= 1.942626D-01  Symmetry=a2u
              MO Center= -5.4D-13,  4.2D-13, -6.9D-14, r^2= 1.7D+01
   Bfn.  Coefficient  Atom+Function         Bfn.  Coefficient  Atom+Function  
  ----- ------------  ---------------      ----- ------------  ---------------
     4      2.910160   1 H  s                34      2.910160   2 H  s         
    64      2.910160   3 H  s                94      2.910160   4 H  s         
   124     -2.910160   5 H  s               154     -2.910160   6 H  s         
   184     -2.910160   7 H  s               214     -2.910160   8 H  s         
     3      2.727106   1 H  s                33      2.727106   2 H  s         

 Vector   37  Occ=0.000000D+00  E= 1.972478D-01  Symmetry=t1u
              MO Center=  8.9D-14, -1.7D-13,  3.2D-13, r^2= 1.1D+01
   Bfn.  Coefficient  Atom+Function         Bfn.  Coefficient  Atom+Function  
  ----- ------------  ---------------      ----- ------------  ---------------
   355      3.327526  11 C  s               575     -3.327526  15 C  s         
    64      2.684291   3 H  s               184     -2.684291   7 H  s         
   365      2.486395  11 C  px              585      2.486395  15 C  px        
   410     -1.897487  12 C  s               630      1.897487  16 C  s         
   366     -1.863711  11 C  py              420      1.859630  12 C  px        

 Vector   38  Occ=0.000000D+00  E= 1.972478D-01  Symmetry=t1u
              MO Center=  6.5D-13,  5.5D-14,  4.5D-13, r^2= 1.1D+01
   Bfn.  Coefficient  Atom+Function         Bfn.  Coefficient  Atom+Function  
  ----- ------------  ---------------      ----- ------------  ---------------
   300      3.241256  10 C  s               465     -3.241256  13 C  s         
    34      2.614697   2 H  s               124     -2.614697   5 H  s         
   311      2.451924  10 C  py              476      2.451924  13 C  py        
   245     -2.343369   9 C  s               520      2.343369  14 C  s         
   256      2.058394   9 C  py              531      2.058394  14 C  py        

 Vector   39  Occ=0.000000D+00  E= 1.972478D-01  Symmetry=t1u
              MO Center=  5.3D-13, -7.3D-13, -4.8D-13, r^2= 1.1D+01
   Bfn.  Coefficient  Atom+Function         Bfn.  Coefficient  Atom+Function  
  ----- ------------  ---------------      ----- ------------  ---------------
   410      3.136019  12 C  s               630     -3.136019  16 C  s         
    94      2.529804   4 H  s               214     -2.529804   8 H  s         
   422      2.451676  12 C  pz              642      2.451676  16 C  pz        
   245     -2.188593   9 C  s               520      2.188593  14 C  s         
   257      2.036433   9 C  pz              532      2.036433  14 C  pz        

 Vector   40  Occ=0.000000D+00  E= 2.737790D-01  Symmetry=eg
              MO Center= -2.3D-15, -2.1D-15,  2.6D-16, r^2= 8.7D+00
   Bfn.  Coefficient  Atom+Function         Bfn.  Coefficient  Atom+Function  
  ----- ------------  ---------------      ----- ------------  ---------------
   256      0.394900   9 C  py              311     -0.394900  10 C  py        
   366      0.394900  11 C  py              421     -0.394900  12 C  py        
   476      0.394900  13 C  py              531     -0.394900  14 C  py        
   586     -0.394900  15 C  py              641      0.394900  16 C  py        
   255     -0.304024   9 C  px              310      0.304024  10 C  px        

 Vector   41  Occ=0.000000D+00  E= 2.737790D-01  Symmetry=eg
              MO Center=  7.8D-16, -2.2D-15,  1.8D-15, r^2= 8.7D+00
   Bfn.  Coefficient  Atom+Function         Bfn.  Coefficient  Atom+Function  
  ----- ------------  ---------------      ----- ------------  ---------------
   257      0.403524   9 C  pz              312      0.403524  10 C  pz        
   367     -0.403524  11 C  pz              422     -0.403524  12 C  pz        
   477     -0.403524  13 C  pz              532     -0.403524  14 C  pz        
   587      0.403524  15 C  pz              642      0.403524  16 C  pz        
   254     -0.284276   9 C  pz              309     -0.284276  10 C  pz        

 Vector   42  Occ=0.000000D+00  E= 3.000817D-01  Symmetry=t2g
              MO Center=  5.8D-13,  5.0D-13, -9.5D-13, r^2= 1.3D+01
   Bfn.  Coefficient  Atom+Function         Bfn.  Coefficient  Atom+Function  
  ----- ------------  ---------------      ----- ------------  ---------------
   245     21.832405   9 C  s               520     21.832405  14 C  s         
   355    -16.627460  11 C  s               575    -16.627460  15 C  s         
   410    -15.416021  12 C  s               630    -15.416021  16 C  s         
   300     10.211077  10 C  s               465     10.211077  13 C  s         
   256     -7.007019   9 C  py              531      7.007019  14 C  py        

 Vector   43  Occ=0.000000D+00  E= 3.000817D-01  Symmetry=t2g
              MO Center= -4.6D-13, -3.5D-13, -2.7D-13, r^2= 1.3D+01
   Bfn.  Coefficient  Atom+Function         Bfn.  Coefficient  Atom+Function  
  ----- ------------  ---------------      ----- ------------  ---------------
   410     21.998865  12 C  s               630     21.998865  16 C  s         
   355    -16.691426  11 C  s               575    -16.691426  15 C  s         
   300    -15.271325  10 C  s               465    -15.271325  13 C  s         
   245      9.963886   9 C  s               520      9.963886  14 C  s         
   422      7.055135  12 C  pz              642     -7.055135  16 C  pz        

 Vector   44  Occ=0.000000D+00  E= 3.000817D-01  Symmetry=t2g
              MO Center=  2.8D-13,  5.5D-13, -4.2D-13, r^2= 1.3D+01
   Bfn.  Coefficient  Atom+Function         Bfn.  Coefficient  Atom+Function  
  ----- ------------  ---------------      ----- ------------  ---------------
   300     21.995571  10 C  s               465     21.995571  13 C  s         
   355    -16.315896  11 C  s               575    -16.315896  15 C  s         
   245    -15.663705   9 C  s               520    -15.663705  14 C  s         
   410      9.984030  12 C  s               630      9.984030  16 C  s         
   310      7.022556  10 C  px              475     -7.022556  13 C  px        

 Vector   45  Occ=0.000000D+00  E= 3.213218D-01  Symmetry=t1g
              MO Center=  4.2D-15,  9.2D-15,  6.4D-15, r^2= 8.3D+00
   Bfn.  Coefficient  Atom+Function         Bfn.  Coefficient  Atom+Function  
  ----- ------------  ---------------      ----- ------------  ---------------
   311      2.324001  10 C  py              421     -2.324001  12 C  py        
   476     -2.324001  13 C  py              641      2.324001  16 C  py        
   255      2.096626   9 C  px              420     -2.096626  12 C  px        
   530     -2.096626  14 C  px              640      2.096626  16 C  px        
   257     -1.842691   9 C  pz              312      1.842691  10 C  pz        

 Vector   46  Occ=0.000000D+00  E= 3.213218D-01  Symmetry=t1g
              MO Center= -1.2D-15,  4.1D-15, -8.0D-15, r^2= 8.3D+00
   Bfn.  Coefficient  Atom+Function         Bfn.  Coefficient  Atom+Function  
  ----- ------------  ---------------      ----- ------------  ---------------
   310      2.509277  10 C  px              365     -2.509277  11 C  px        
   475     -2.509277  13 C  px              585      2.509277  15 C  px        
   257     -1.786402   9 C  pz              312      1.786402  10 C  pz        
   477     -1.786402  13 C  pz              532      1.786402  14 C  pz        
   256      1.685651   9 C  py              366     -1.685651  11 C  py        

 Vector   47  Occ=0.000000D+00  E= 3.213218D-01  Symmetry=t1g
              MO Center= -1.6D-14,  2.4D-14, -1.8D-14, r^2= 8.3D+00
   Bfn.  Coefficient  Atom+Function         Bfn.  Coefficient  Atom+Function  
  ----- ------------  ---------------      ----- ------------  ---------------
   367      2.457647  11 C  pz              422     -2.457647  12 C  pz        
   587     -2.457647  15 C  pz              642      2.457647  16 C  pz        
   256     -1.965753   9 C  py              366      1.965753  11 C  py        
   531      1.965753  14 C  py              586     -1.965753  15 C  py        
   255      1.537562   9 C  px              420     -1.537562  12 C  px        

 Vector   48  Occ=0.000000D+00  E= 3.236696D-01  Symmetry=t2u
              MO Center= -5.6D-15,  2.4D-14,  5.2D-14, r^2= 1.0D+01
   Bfn.  Coefficient  Atom+Function         Bfn.  Coefficient  Atom+Function  
  ----- ------------  ---------------      ----- ------------  ---------------
   255      1.002095   9 C  px              420     -1.002095  12 C  px        
   530      1.002095  14 C  px              640     -1.002095  16 C  px        
   257     -0.929559   9 C  pz              312      0.929559  10 C  pz        
   477      0.929559  13 C  pz              532     -0.929559  14 C  pz        
   311      0.595252  10 C  py              421     -0.595252  12 C  py        

 Vector   49  Occ=0.000000D+00  E= 3.236696D-01  Symmetry=t2u
              MO Center= -9.0D-15,  2.7D-14, -9.9D-15, r^2= 1.0D+01
   Bfn.  Coefficient  Atom+Function         Bfn.  Coefficient  Atom+Function  
  ----- ------------  ---------------      ----- ------------  ---------------
   367      0.974937  11 C  pz              422     -0.974937  12 C  pz        
   587      0.974937  15 C  pz              642     -0.974937  16 C  pz        
   256     -0.875115   9 C  py              366      0.875115  11 C  py        
   531     -0.875115  14 C  py              586      0.875115  15 C  py        
   311     -0.618648  10 C  py              421      0.618648  12 C  py        

 Vector   50  Occ=0.000000D+00  E= 3.236696D-01  Symmetry=t2u
              MO Center= -9.4D-14, -5.6D-14,  3.0D-14, r^2= 1.0D+01
   Bfn.  Coefficient  Atom+Function         Bfn.  Coefficient  Atom+Function  
  ----- ------------  ---------------      ----- ------------  ---------------
   310      1.063412  10 C  px              365     -1.063412  11 C  px        
   475      1.063412  13 C  px              585     -1.063412  15 C  px        
   311     -0.717997  10 C  py              421      0.717997  12 C  py        
   476     -0.717997  13 C  py              641      0.717997  16 C  py        
   256      0.693890   9 C  py              366     -0.693890  11 C  py        

 Vector   51  Occ=0.000000D+00  E= 3.351007D-01  Symmetry=a1g
              MO Center= -3.3D-13, -1.4D-13,  5.3D-13, r^2= 6.2D+00
   Bfn.  Coefficient  Atom+Function         Bfn.  Coefficient  Atom+Function  
  ----- ------------  ---------------      ----- ------------  ---------------
     3      1.367456   1 H  s                33      1.367456   2 H  s         
    63      1.367456   3 H  s                93      1.367456   4 H  s         
   123      1.367456   5 H  s               153      1.367456   6 H  s         
   183      1.367456   7 H  s               213      1.367456   8 H  s         
   245     -0.653264   9 C  s               300     -0.653264  10 C  s         

 Vector   52  Occ=0.000000D+00  E= 3.949243D-01  Symmetry=t1u
              MO Center= -3.5D-14, -8.1D-14,  5.1D-14, r^2= 7.9D+00
   Bfn.  Coefficient  Atom+Function         Bfn.  Coefficient  Atom+Function  
  ----- ------------  ---------------      ----- ------------  ---------------
   245      7.197753   9 C  s               520     -7.197753  14 C  s         
   300     -6.680152  10 C  s               465      6.680152  13 C  s         
   256     -3.048877   9 C  py              531     -3.048877  14 C  py        
   255     -2.972656   9 C  px              530     -2.972656  14 C  px        
   311     -2.928573  10 C  py              476     -2.928573  13 C  py        

 Vector   53  Occ=0.000000D+00  E= 3.949243D-01  Symmetry=t1u
              MO Center=  4.5D-15, -9.4D-14,  4.9D-14, r^2= 7.9D+00
   Bfn.  Coefficient  Atom+Function         Bfn.  Coefficient  Atom+Function  
  ----- ------------  ---------------      ----- ------------  ---------------
   410      8.423011  12 C  s               630     -8.423011  16 C  s         
   355     -3.906541  11 C  s               575      3.906541  15 C  s         
   420     -3.212623  12 C  px              640     -3.212623  16 C  px        
   421      3.079952  12 C  py              641      3.079952  16 C  py        
   422      2.828496  12 C  pz              642      2.828496  16 C  pz        

 Vector   54  Occ=0.000000D+00  E= 3.949243D-01  Symmetry=t1u
              MO Center= -1.2D-13,  1.8D-13, -4.9D-14, r^2= 7.9D+00
   Bfn.  Coefficient  Atom+Function         Bfn.  Coefficient  Atom+Function  
  ----- ------------  ---------------      ----- ------------  ---------------
   355      7.564280  11 C  s               575     -7.564280  15 C  s         
   300     -4.592030  10 C  s               465      4.592030  13 C  s         
   245     -4.124493   9 C  s               520      4.124493  14 C  s         
   367      3.438670  11 C  pz              587      3.438670  15 C  pz        
   312      2.747842  10 C  pz              477      2.747842  13 C  pz        

 Vector   55  Occ=0.000000D+00  E= 4.198678D-01  Symmetry=a1g
              MO Center= -5.9D-15, -4.4D-14,  3.1D-13, r^2= 1.2D+01
   Bfn.  Coefficient  Atom+Function         Bfn.  Coefficient  Atom+Function  
  ----- ------------  ---------------      ----- ------------  ---------------
   245      2.812588   9 C  s               300      2.812588  10 C  s         
   355      2.812588  11 C  s               410      2.812588  12 C  s         
   465      2.812588  13 C  s               520      2.812588  14 C  s         
   575      2.812588  15 C  s               630      2.812588  16 C  s         
     3     -2.194064   1 H  s                33     -2.194064   2 H  s         

 Vector   56  Occ=0.000000D+00  E= 4.319004D-01  Symmetry=eu
              MO Center= -2.9D-14,  6.5D-14, -1.7D-15, r^2= 1.1D+01
   Bfn.  Coefficient  Atom+Function         Bfn.  Coefficient  Atom+Function  
  ----- ------------  ---------------      ----- ------------  ---------------
   255      4.697212   9 C  px              310     -4.697212  10 C  px        
   365     -4.697212  11 C  px              420      4.697212  12 C  px        
   475     -4.697212  13 C  px              530      4.697212  14 C  px        
   585     -4.697212  15 C  px              640      4.697212  16 C  px        
   256     -4.604303   9 C  py              311      4.604303  10 C  py        

 Vector   57  Occ=0.000000D+00  E= 4.319004D-01  Symmetry=eu
              MO Center= -8.0D-14,  1.0D-14,  5.0D-13, r^2= 1.1D+01
   Bfn.  Coefficient  Atom+Function         Bfn.  Coefficient  Atom+Function  
  ----- ------------  ---------------      ----- ------------  ---------------
   257      5.370232   9 C  pz              312      5.370232  10 C  pz        
   367     -5.370232  11 C  pz              422     -5.370232  12 C  pz        
   477      5.370232  13 C  pz              532      5.370232  14 C  pz        
   587     -5.370232  15 C  pz              642     -5.370232  16 C  pz        
   256     -2.765578   9 C  py              311      2.765578  10 C  py        

 Vector   58  Occ=0.000000D+00  E= 4.652431D-01  Symmetry=t1u
              MO Center= -2.1D-13, -1.4D-13, -4.9D-13, r^2= 1.2D+01
   Bfn.  Coefficient  Atom+Function         Bfn.  Coefficient  Atom+Function  
  ----- ------------  ---------------      ----- ------------  ---------------
     4      4.073802   1 H  s               154     -4.073802   6 H  s         
   257     -3.628934   9 C  pz              532     -3.628934  14 C  pz        
    34     -3.590304   2 H  s               124      3.590304   5 H  s         
   255     -3.432456   9 C  px              530     -3.432456  14 C  px        
   312      3.278197  10 C  pz              477      3.278197  13 C  pz        

 Vector   59  Occ=0.000000D+00  E= 4.652431D-01  Symmetry=t1u
              MO Center=  9.8D-13, -8.3D-14, -5.4D-13, r^2= 1.2D+01
   Bfn.  Coefficient  Atom+Function         Bfn.  Coefficient  Atom+Function  
  ----- ------------  ---------------      ----- ------------  ---------------
    94      4.051517   4 H  s               214     -4.051517   8 H  s         
   421      3.588159  12 C  py              641      3.588159  16 C  py        
   420     -3.455733  12 C  px              640     -3.455733  16 C  px        
    34     -3.332658   2 H  s               124      3.332658   5 H  s         
   422      3.197843  12 C  pz              642      3.197843  16 C  pz        

 Vector   60  Occ=0.000000D+00  E= 4.652431D-01  Symmetry=t1u
              MO Center= -3.3D-13,  4.8D-13, -2.7D-13, r^2= 1.2D+01
   Bfn.  Coefficient  Atom+Function         Bfn.  Coefficient  Atom+Function  
  ----- ------------  ---------------      ----- ------------  ---------------
    64      4.698497   3 H  s               184     -4.698497   7 H  s         
   367      4.033300  11 C  pz              587      4.033300  15 C  pz        
   366     -4.000070  11 C  py              586     -4.000070  15 C  py        
   365      3.843852  11 C  px              585      3.843852  15 C  px        
   354     -3.464644  11 C  s               574      3.464644  15 C  s         

 Vector   61  Occ=0.000000D+00  E= 4.866291D-01  Symmetry=t2g
              MO Center= -6.3D-14, -3.5D-14, -2.1D-13, r^2= 1.2D+01
   Bfn.  Coefficient  Atom+Function         Bfn.  Coefficient  Atom+Function  
  ----- ------------  ---------------      ----- ------------  ---------------
   300      7.000317  10 C  s               465      7.000317  13 C  s         
   310      6.854696  10 C  px              475     -6.854696  13 C  px        
   255      6.056487   9 C  px              530     -6.056487  14 C  px        
   245     -5.897877   9 C  s               520     -5.897877  14 C  s         
   311      5.470950  10 C  py              476     -5.470950  13 C  py        

 Vector   62  Occ=0.000000D+00  E= 4.866291D-01  Symmetry=t2g
              MO Center= -5.1D-14, -5.8D-13,  4.5D-13, r^2= 1.2D+01
   Bfn.  Coefficient  Atom+Function         Bfn.  Coefficient  Atom+Function  
  ----- ------------  ---------------      ----- ------------  ---------------
   355      7.617844  11 C  s               575      7.617844  15 C  s         
   366     -7.256474  11 C  py              586      7.256474  15 C  py        
   365      5.950717  11 C  px              367      5.924934  11 C  pz        
   585     -5.950717  15 C  px              587     -5.924934  15 C  pz        
   421     -5.509930  12 C  py              641      5.509930  16 C  py        

 Vector   63  Occ=0.000000D+00  E= 4.866291D-01  Symmetry=t2g
              MO Center= -1.1D-13, -1.2D-12,  3.4D-13, r^2= 1.2D+01
   Bfn.  Coefficient  Atom+Function         Bfn.  Coefficient  Atom+Function  
  ----- ------------  ---------------      ----- ------------  ---------------
   245      6.817105   9 C  s               520      6.817105  14 C  s         
   257     -6.720482   9 C  pz              532      6.720482  14 C  pz        
   422     -6.347393  12 C  pz              642      6.347393  16 C  pz        
   410     -6.301817  12 C  s               630     -6.301817  16 C  s         
   256     -5.377314   9 C  py              531      5.377314  14 C  py        

 Vector   64  Occ=0.000000D+00  E= 4.902929D-01  Symmetry=a2u
              MO Center=  1.3D-12, -5.0D-13, -1.2D-12, r^2= 1.3D+01
   Bfn.  Coefficient  Atom+Function         Bfn.  Coefficient  Atom+Function  
  ----- ------------  ---------------      ----- ------------  ---------------
     3      6.271419   1 H  s                33      6.271419   2 H  s         
    63      6.271419   3 H  s                93      6.271419   4 H  s         
   123     -6.271419   5 H  s               153     -6.271419   6 H  s         
   183     -6.271419   7 H  s               213     -6.271419   8 H  s         
     4      3.757073   1 H  s                34      3.757073   2 H  s         

 Vector   65  Occ=0.000000D+00  E= 5.084451D-01  Symmetry=t1g
              MO Center=  1.2D-14,  1.7D-14,  3.5D-14, r^2= 7.6D+00
   Bfn.  Coefficient  Atom+Function         Bfn.  Coefficient  Atom+Function  
  ----- ------------  ---------------      ----- ------------  ---------------
   367      2.961549  11 C  pz              422     -2.961549  12 C  pz        
   587     -2.961549  15 C  pz              642      2.961549  16 C  pz        
   310      2.492139  10 C  px              365     -2.492139  11 C  px        
   475     -2.492139  13 C  px              585      2.492139  15 C  px        
   255      2.027190   9 C  px              420     -2.027190  12 C  px        


 center of mass
 --------------
 x =   0.00000000 y =   0.00000000 z =   0.00000000

 moments of inertia (a.u.)
 ------------------
         535.595948284641           0.000000000000           0.000000000000
           0.000000000000         535.595948284641           0.000000000000
           0.000000000000           0.000000000000         535.595948284641

  Mulliken analysis of the total density
  --------------------------------------

    Atom       Charge   Shell Charges
 -----------   ------   -------------------------------------------------------
    1 H    1     0.82   0.07  0.31  0.33  0.08  0.00  0.01  0.02  0.00  0.00  0.00
    2 H    1     0.82   0.07  0.31  0.33  0.08  0.00  0.01  0.02  0.00  0.00  0.00
    3 H    1     0.82   0.07  0.31  0.33  0.08  0.00  0.01  0.02  0.00  0.00  0.00
    4 H    1     0.82   0.07  0.31  0.33  0.08  0.00  0.01  0.02  0.00  0.00  0.00
    5 H    1     0.82   0.07  0.31  0.33  0.08  0.00  0.01  0.02  0.00  0.00  0.00
    6 H    1     0.82   0.07  0.31  0.33  0.08  0.00  0.01  0.02  0.00  0.00  0.00
    7 H    1     0.82   0.07  0.31  0.33  0.08  0.00  0.01  0.02  0.00  0.00  0.00
    8 H    1     0.82   0.07  0.31  0.33  0.08  0.00  0.01  0.02  0.00  0.00  0.00
    9 C    6     6.18   1.99 -0.02  0.28  0.75  0.26  0.26  0.92  1.38  0.19  0.00  0.05  0.09  0.00  0.02  0.00
   10 C    6     6.18   1.99 -0.02  0.28  0.75  0.26  0.26  0.92  1.38  0.19  0.00  0.05  0.09  0.00  0.02  0.00
   11 C    6     6.18   1.99 -0.02  0.28  0.75  0.26  0.26  0.92  1.38  0.19  0.00  0.05  0.09  0.00  0.02  0.00
   12 C    6     6.18   1.99 -0.02  0.28  0.75  0.26  0.26  0.92  1.38  0.19  0.00  0.05  0.09  0.00  0.02  0.00
   13 C    6     6.18   1.99 -0.02  0.28  0.75  0.26  0.26  0.92  1.38  0.19  0.00  0.05  0.09  0.00  0.02  0.00
   14 C    6     6.18   1.99 -0.02  0.28  0.75  0.26  0.26  0.92  1.38  0.19  0.00  0.05  0.09  0.00  0.02  0.00
   15 C    6     6.18   1.99 -0.02  0.28  0.75  0.26  0.26  0.92  1.38  0.19  0.00  0.05  0.09  0.00  0.02  0.00
   16 C    6     6.18   1.99 -0.02  0.28  0.75  0.26  0.26  0.92  1.38  0.19  0.00  0.05  0.09  0.00  0.02  0.00

       Multipole analysis of the density wrt the origin
       ------------------------------------------------

     L   x y z        total         open         nuclear
     -   - - -        -----         ----         -------
     0   0 0 0      0.000000      0.000000     56.000000

     1   1 0 0     -0.000000      0.000000      0.000000
     1   0 1 0     -0.000000      0.000000      0.000000
     1   0 0 1     -0.000000      0.000000      0.000000

     2   2 0 0    -34.935258      0.000000    162.075300
     2   1 1 0      0.000000      0.000000      0.000000
     2   1 0 1      0.000000      0.000000      0.000000
     2   0 2 0    -34.935258      0.000000    162.075300
     2   0 1 1     -0.000000      0.000000      0.000000
     2   0 0 2    -34.935258      0.000000    162.075300

                   NWChem MP2 Semi-direct Energy/Gradient Module
                   ---------------------------------------------


                     cubane MP2/cc-pVQZ geometry optimization


  Basis functions       =    680
  Molecular orbitals    =    679
  Frozen core           =      8
  Frozen virtuals       =      0
  Active alpha occupied =     20
  Active beta occupied  =     20
  Active alpha virtual  =    651
  Active beta virtual   =    651
  Use MO symmetry       = F
  Use skeleton AO sym   = T

  AO/Fock/Back tols     =   1.0D-09  1.0D-09  1.0D-09

 GA uses MA = F    GA memory limited = T

 Available: 
  local mem=  1.44D+08
 global mem=  1.28D+08
 local disk=  2.73D+10
  mp2_memr nvloc                   651
  nvloc new                   651
   1 passes of  20:        7511373                   20120968                6705626549.

 Semi-direct pass number   1 of   1  for RHF alpha+beta  at      841.3s
  vrange nnbf                214576
Node 0 wrote  22350.2 Mb in      4.0 s     Agg I/O rate:  5532.2 Mb/s
 Done moints_semi at     6408.1s
  mp2_eaf for ta                     -1
  mp2_eaf for tb                     -1
 Done maket at     6847.9s
 Done pijab at     6980.5s
 Done wijab at     7111.6s
 Done lai at    18961.2s
[...]
   53 Bend                    10    15    12                90.00000    0.00000
   54 Bend                    10    16    11                90.00000    0.00000
   55 Bend                    11    13    12                90.00000    0.00000
   56 Bend                    11    14    12                90.00000    0.00000
   57 Bend                    13     9    15                90.00000    0.00000
   58 Bend                    13     9    16                90.00000    0.00000
   59 Bend                    13    11    14                90.00000    0.00000
   60 Bend                    13    11    16                90.00000    0.00000
   61 Bend                    13    12    14                90.00000    0.00000
   62 Bend                    13    12    15                90.00000    0.00000
   63 Bend                    14    10    15                90.00000    0.00000
   64 Bend                    14    10    16                90.00000    0.00000
   65 Bend                    14    11    16                90.00000    0.00000
   66 Bend                    14    12    15                90.00000    0.00000
   67 Bend                    15     9    16                90.00000    0.00000
   68 Bend                    15    10    16                90.00000    0.00000
   69 Torsion                  1     9    13     5           0.00000    0.00000
   70 Torsion                  1     9    13    11        -135.00000    0.00000
   71 Torsion                  1     9    13    12         135.00000    0.00000
   72 Torsion                  1     9    15     7           0.00000    0.00000
   73 Torsion                  1     9    15    10         135.00000    0.00000
   74 Torsion                  1     9    15    12        -135.00000    0.00000
   75 Torsion                  1     9    16     8           0.00000    0.00000
   76 Torsion                  1     9    16    10        -135.00000    0.00000
   77 Torsion                  1     9    16    11         135.00000    0.00000
   78 Torsion                  2    10    14     6           0.00000    0.00000
   79 Torsion                  2    10    14    11         135.00000    0.00000
   80 Torsion                  2    10    14    12        -135.00000    0.00000
   81 Torsion                  2    10    15     7           0.00000    0.00000
   82 Torsion                  2    10    15     9        -135.00000    0.00000
   83 Torsion                  2    10    15    12         135.00000    0.00000
   84 Torsion                  2    10    16     8           0.00000    0.00000
   85 Torsion                  2    10    16     9         135.00000    0.00000
   86 Torsion                  2    10    16    11        -135.00000    0.00000
   87 Torsion                  3    11    13     5           0.00000    0.00000
   88 Torsion                  3    11    13     9         135.00000    0.00000
   89 Torsion                  3    11    13    12        -135.00000    0.00000
   90 Torsion                  3    11    14     6           0.00000    0.00000
   91 Torsion                  3    11    14    10        -135.00000    0.00000
   92 Torsion                  3    11    14    12         135.00000    0.00000
   93 Torsion                  3    11    16     8           0.00000    0.00000
   94 Torsion                  3    11    16     9        -135.00000    0.00000
   95 Torsion                  3    11    16    10         135.00000    0.00000
   96 Torsion                  4    12    13     5           0.00000    0.00000
   97 Torsion                  4    12    13     9        -135.00000    0.00000
   98 Torsion                  4    12    13    11         135.00000    0.00000
   99 Torsion                  4    12    14     6           0.00000    0.00000
  100 Torsion                  4    12    14    10         135.00000    0.00000
  101 Torsion                  4    12    14    11        -135.00000    0.00000
  102 Torsion                  4    12    15     7           0.00000    0.00000
  103 Torsion                  4    12    15     9         135.00000    0.00000
  104 Torsion                  4    12    15    10        -135.00000    0.00000
  105 Torsion                  5    13     9    15        -135.00000    0.00000
  106 Torsion                  5    13     9    16         135.00000    0.00000
  107 Torsion                  5    13    11    14         135.00000    0.00000
  108 Torsion                  5    13    11    16        -135.00000    0.00000
  109 Torsion                  5    13    12    14        -135.00000    0.00000
  110 Torsion                  5    13    12    15         135.00000    0.00000
  111 Torsion                  6    14    10    15         135.00000    0.00000
  112 Torsion                  6    14    10    16        -135.00000    0.00000
  113 Torsion                  6    14    11    13        -135.00000    0.00000
  114 Torsion                  6    14    11    16         135.00000    0.00000
  115 Torsion                  6    14    12    13         135.00000    0.00000
  116 Torsion                  6    14    12    15        -135.00000    0.00000
  117 Torsion                  7    15     9    13         135.00000    0.00000
  118 Torsion                  7    15     9    16        -135.00000    0.00000
  119 Torsion                  7    15    10    14        -135.00000    0.00000
  120 Torsion                  7    15    10    16         135.00000    0.00000
  121 Torsion                  7    15    12    13        -135.00000    0.00000
  122 Torsion                  7    15    12    14         135.00000    0.00000
  123 Torsion                  8    16     9    13        -135.00000    0.00000
  124 Torsion                  8    16     9    15         135.00000    0.00000
  125 Torsion                  8    16    10    14         135.00000    0.00000
  126 Torsion                  8    16    10    15        -135.00000    0.00000
  127 Torsion                  8    16    11    13         135.00000    0.00000
  128 Torsion                  8    16    11    14        -135.00000    0.00000
  129 Torsion                  9    13    11    14         -90.00000    0.00000
  130 Torsion                  9    13    11    16           0.00000    0.00000
  131 Torsion                  9    13    12    14          90.00000    0.00000
  132 Torsion                  9    13    12    15           0.00000    0.00000
  133 Torsion                  9    15    10    14          90.00000    0.00000
  134 Torsion                  9    15    10    16           0.00000    0.00000
  135 Torsion                  9    15    12    13           0.00000    0.00000
  136 Torsion                  9    15    12    14         -90.00000    0.00000
  137 Torsion                  9    16    10    14         -90.00000    0.00000
  138 Torsion                  9    16    10    15           0.00000    0.00000
  139 Torsion                  9    16    11    13           0.00000    0.00000
  140 Torsion                  9    16    11    14          90.00000    0.00000
  141 Torsion                 10    14    11    13          90.00000    0.00000
  142 Torsion                 10    14    11    16           0.00000    0.00000
  143 Torsion                 10    14    12    13         -90.00000    0.00000
  144 Torsion                 10    14    12    15           0.00000    0.00000
  145 Torsion                 10    15     9    13         -90.00000    0.00000
  146 Torsion                 10    15     9    16           0.00000    0.00000
  147 Torsion                 10    15    12    13          90.00000    0.00000
  148 Torsion                 10    15    12    14           0.00000    0.00000
  149 Torsion                 10    16     9    13          90.00000    0.00000
  150 Torsion                 10    16     9    15           0.00000    0.00000
  151 Torsion                 10    16    11    13         -90.00000    0.00000
  152 Torsion                 10    16    11    14           0.00000    0.00000
  153 Torsion                 11    13     9    15          90.00000    0.00000
  154 Torsion                 11    13     9    16           0.00000    0.00000
  155 Torsion                 11    13    12    14           0.00000    0.00000
  156 Torsion                 11    13    12    15         -90.00000    0.00000
  157 Torsion                 11    14    10    15         -90.00000    0.00000
  158 Torsion                 11    14    10    16           0.00000    0.00000
  159 Torsion                 11    14    12    13           0.00000    0.00000
  160 Torsion                 11    14    12    15          90.00000    0.00000
  161 Torsion                 11    16     9    13           0.00000    0.00000
  162 Torsion                 11    16     9    15         -90.00000    0.00000
  163 Torsion                 11    16    10    14           0.00000    0.00000
  164 Torsion                 11    16    10    15          90.00000    0.00000
  165 Torsion                 12    13     9    15           0.00000    0.00000
  166 Torsion                 12    13     9    16         -90.00000    0.00000
  167 Torsion                 12    13    11    14           0.00000    0.00000
  168 Torsion                 12    13    11    16          90.00000    0.00000
  169 Torsion                 12    14    10    15           0.00000    0.00000
  170 Torsion                 12    14    10    16          90.00000    0.00000
  171 Torsion                 12    14    11    13           0.00000    0.00000
  172 Torsion                 12    14    11    16         -90.00000    0.00000
  173 Torsion                 12    15     9    13           0.00000    0.00000
  174 Torsion                 12    15     9    16          90.00000    0.00000
  175 Torsion                 12    15    10    14           0.00000    0.00000
  176 Torsion                 12    15    10    16         -90.00000    0.00000

 ==============================================================================
                                internuclear distances
 ------------------------------------------------------------------------------
       center one      |      center two      | atomic units |  angstroms
 ------------------------------------------------------------------------------
    9 C                |   1 H                |     2.05280  |     1.08629
   10 C                |   2 H                |     2.05280  |     1.08629
   11 C                |   3 H                |     2.05280  |     1.08629
   12 C                |   4 H                |     2.05280  |     1.08629
   13 C                |   5 H                |     2.05280  |     1.08629
   13 C                |   9 C                |     2.95505  |     1.56375
   13 C                |  11 C                |     2.95505  |     1.56375
   13 C                |  12 C                |     2.95505  |     1.56375
   14 C                |   6 H                |     2.05280  |     1.08629
   14 C                |  10 C                |     2.95505  |     1.56375
   14 C                |  11 C                |     2.95505  |     1.56375
   14 C                |  12 C                |     2.95505  |     1.56375
   15 C                |   7 H                |     2.05280  |     1.08629
   15 C                |   9 C                |     2.95505  |     1.56375
   15 C                |  10 C                |     2.95505  |     1.56375
   15 C                |  12 C                |     2.95505  |     1.56375
   16 C                |   8 H                |     2.05280  |     1.08629
   16 C                |   9 C                |     2.95505  |     1.56375
   16 C                |  10 C                |     2.95505  |     1.56375
   16 C                |  11 C                |     2.95505  |     1.56375
 ------------------------------------------------------------------------------
                         number of included internuclear distances:         20
 ==============================================================================



 ==============================================================================
                                 internuclear angles
 ------------------------------------------------------------------------------
        center 1       |       center 2       |       center 3       |  degrees
 ------------------------------------------------------------------------------
    1 H                |   9 C                |  13 C                |   125.26
    1 H                |   9 C                |  15 C                |   125.26
    1 H                |   9 C                |  16 C                |   125.26
   13 C                |   9 C                |  15 C                |    90.00
   13 C                |   9 C                |  16 C                |    90.00
   15 C                |   9 C                |  16 C                |    90.00
    2 H                |  10 C                |  14 C                |   125.26
    2 H                |  10 C                |  15 C                |   125.26
    2 H                |  10 C                |  16 C                |   125.26
   14 C                |  10 C                |  15 C                |    90.00
   14 C                |  10 C                |  16 C                |    90.00
   15 C                |  10 C                |  16 C                |    90.00
    3 H                |  11 C                |  13 C                |   125.26
    3 H                |  11 C                |  14 C                |   125.26
    3 H                |  11 C                |  16 C                |   125.26
   13 C                |  11 C                |  14 C                |    90.00
   13 C                |  11 C                |  16 C                |    90.00
   14 C                |  11 C                |  16 C                |    90.00
    4 H                |  12 C                |  13 C                |   125.26
    4 H                |  12 C                |  14 C                |   125.26
    4 H                |  12 C                |  15 C                |   125.26
   13 C                |  12 C                |  14 C                |    90.00
   13 C                |  12 C                |  15 C                |    90.00
   14 C                |  12 C                |  15 C                |    90.00
    5 H                |  13 C                |   9 C                |   125.26
    5 H                |  13 C                |  11 C                |   125.26
    5 H                |  13 C                |  12 C                |   125.26
    9 C                |  13 C                |  11 C                |    90.00
    9 C                |  13 C                |  12 C                |    90.00
   11 C                |  13 C                |  12 C                |    90.00
    6 H                |  14 C                |  10 C                |   125.26
    6 H                |  14 C                |  11 C                |   125.26
    6 H                |  14 C                |  12 C                |   125.26
   10 C                |  14 C                |  11 C                |    90.00
   10 C                |  14 C                |  12 C                |    90.00
   11 C                |  14 C                |  12 C                |    90.00
    7 H                |  15 C                |   9 C                |   125.26
    7 H                |  15 C                |  10 C                |   125.26
    7 H                |  15 C                |  12 C                |   125.26
    9 C                |  15 C                |  10 C                |    90.00
    9 C                |  15 C                |  12 C                |    90.00
   10 C                |  15 C                |  12 C                |    90.00
    8 H                |  16 C                |   9 C                |   125.26
    8 H                |  16 C                |  10 C                |   125.26
    8 H                |  16 C                |  11 C                |   125.26
    9 C                |  16 C                |  10 C                |    90.00
    9 C                |  16 C                |  11 C                |    90.00
   10 C                |  16 C                |  11 C                |    90.00
 ------------------------------------------------------------------------------
                            number of included internuclear angles:         48
 ==============================================================================




 Task  times  cpu:    79437.9s     wall:    80195.3s
 Summary of allocated global arrays
-----------------------------------
  No active global arrays



                         GA Statistics for process    0
                         ------------------------------

       create   destroy   get      put      acc     scatter   gather  read&inc
calls: 2212     2212     9.16e+07 6.74e+06 4.62e+07    0        0     1.24e+05 
number of processes/call 1.00e+00 1.00e+00 1.00e+00 0.00e+00 0.00e+00
bytes total:             1.58e+11 2.48e+11 3.05e+10 0.00e+00 0.00e+00 9.89e+05
bytes remote:            0.00e+00 0.00e+00 0.00e+00 0.00e+00 0.00e+00 0.00e+00
Max memory consumed for GA by this process: 1048570888 bytes
MA_summarize_allocated_blocks: starting scan ...
MA_summarize_allocated_blocks: scan completed: 0 heap blocks, 0 stack blocks
MA usage statistics:

	allocation statistics:
					      heap	     stack
					      ----	     -----
	current number of blocks	         0	         0
	maximum number of blocks	        25	        36
	current total bytes		         0	         0
	maximum total bytes		    843800	 537181016
	maximum total K-bytes		       844	    537182
	maximum total M-bytes		         1	       538


                                NWChem Input Module
                                -------------------





                                     CITATION
                                     --------
                Please cite the following reference when publishing
                           results obtained with NWChem:

                 M. Valiev, E.J. Bylaska, N. Govind, K. Kowalski,
              T.P. Straatsma, H.J.J. van Dam, D. Wang, J. Nieplocha,
                        E. Apra, T.L. Windus, W.A. de Jong
                 "NWChem: a comprehensive and scalable open-source
                  solution for large scale molecular simulations"
                      Comput. Phys. Commun. 181, 1477 (2010)
                           doi:10.1016/j.cpc.2010.04.018

                                      AUTHORS
                                      -------
          E. Apra, E. J. Bylaska, W. A. de Jong, N. Govind, K. Kowalski,
       T. P. Straatsma, M. Valiev, H. J. J. van Dam, D. Wang, T. L. Windus,
        J. Hammond, J. Autschbach, K. Bhaskaran-Nair, J. Brabec, K. Lopata,
       S. A. Fischer, S. Krishnamoorthy, W. Ma, M. Klemm, O. Villa, Y. Chen,
    V. Anisimov, F. Aquino, S. Hirata, M. T. Hackler, T. Risthaus, M. Malagoli,
       A. Marenich, A. Otero-de-la-Roza, J. Mullin, P. Nichols, R. Peverati,
     J. Pittner, Y. Zhao, P.-D. Fan, A. Fonari, M. Williamson, R. J. Harrison,
       J. R. Rehr, M. Dupuis, D. Silverstein, D. M. A. Smith, J. Nieplocha,
        V. Tipparaju, M. Krishnan, B. E. Van Kuiken, A. Vazquez-Mayagoitia,
        L. Jensen, M. Swart, Q. Wu, T. Van Voorhis, A. A. Auer, M. Nooijen,
      L. D. Crosby, E. Brown, G. Cisneros, G. I. Fann, H. Fruchtl, J. Garza,
        K. Hirao, R. A. Kendall, J. A. Nichols, K. Tsemekhman, K. Wolinski,
     J. Anchell, D. E. Bernholdt, P. Borowski, T. Clark, D. Clerc, H. Dachsel,
   M. J. O. Deegan, K. Dyall, D. Elwood, E. Glendening, M. Gutowski, A. C. Hess,
         J. Jaffe, B. G. Johnson, J. Ju, R. Kobayashi, R. Kutteh, Z. Lin,
   R. Littlefield, X. Long, B. Meng, T. Nakajima, S. Niu, L. Pollack, M. Rosing,
   K. Glaesemann, G. Sandrone, M. Stave, H. Taylor, G. Thomas, J. H. van Lenthe,
                               A. T. Wong, Z. Zhang.

 Total times  cpu:    79438.0s     wall:    80195.4s
