 argument  1 = cubane.nw
                                         
                                         


              Northwest Computational Chemistry Package (NWChem) 6.6
              ------------------------------------------------------


                    Environmental Molecular Sciences Laboratory
                       Pacific Northwest National Laboratory
                                Richland, WA 99352

                              Copyright (c) 1994-2015
                       Pacific Northwest National Laboratory
                            Battelle Memorial Institute

             NWChem is an open-source computational chemistry package
                        distributed under the terms of the
                      Educational Community License (ECL) 2.0
             A copy of the license is included with this distribution
                              in the LICENSE.TXT file

                                  ACKNOWLEDGMENT
                                  --------------

            This software and its documentation were developed at the
            EMSL at Pacific Northwest National Laboratory, a multiprogram
            national laboratory, operated for the U.S. Department of Energy
            by Battelle under Contract Number DE-AC05-76RL01830. Support
            for this work was provided by the Department of Energy Office
            of Biological and Environmental Research, Office of Basic
            Energy Sciences, and the Office of Advanced Scientific Computing.


           Job information
           ---------------

    hostname        = konkov-work
    program         = nwchem
    date            = Sun Feb 26 17:27:07 2017

    compiled        = Mon_Feb_15_08:24:17_2016
    source          = /build/nwchem-MF0R1k/nwchem-6.6+r27746
    nwchem branch   = 6.6
    nwchem revision = 27746
    ga revision     = 10594
    input           = cubane.nw
    prefix          = cubane.
    data base       = ./cubane.db
    status          = startup
    nproc           =        1
    time left       =     -1s



           Memory information
           ------------------

    heap     =   13107194 doubles =    100.0 Mbytes
    stack    =   13107199 doubles =    100.0 Mbytes
    global   =   26214400 doubles =    200.0 Mbytes (distinct from heap & stack)
    total    =   52428793 doubles =    400.0 Mbytes
    verify   = yes
    hardfail = no 


           Directory information
           ---------------------

  0 permanent = .
  0 scratch   = .




                                NWChem Input Module
                                -------------------


                       cubane MP2/PC-2 geometry optimization
                       -------------------------------------

 Scaling coordinates for geometry "geometry" by  1.889725989
 (inverse scale =  0.529177249)

 Turning off AUTOSYM since
 SYMMETRY directive was detected!


          ------
          auto-z
          ------


                             Geometry "geometry" -> ""
                             -------------------------

 Output coordinates in angstroms (scale by  1.889725989 to convert to a.u.)

  No.       Tag          Charge          X              Y              Z
 ---- ---------------- ---------- -------------- -------------- --------------
    1 H                    1.0000     1.41060000     1.41060000     1.41060000
    2 H                    1.0000    -1.41060000    -1.41060000     1.41060000
    3 H                    1.0000    -1.41060000     1.41060000    -1.41060000
    4 H                    1.0000     1.41060000    -1.41060000    -1.41060000
    5 H                    1.0000     1.41060000     1.41060000    -1.41060000
    6 H                    1.0000    -1.41060000    -1.41060000    -1.41060000
    7 H                    1.0000     1.41060000    -1.41060000     1.41060000
    8 H                    1.0000    -1.41060000     1.41060000     1.41060000
    9 C                    6.0000     0.78370000     0.78370000     0.78370000
   10 C                    6.0000    -0.78370000    -0.78370000     0.78370000
   11 C                    6.0000    -0.78370000     0.78370000    -0.78370000
   12 C                    6.0000     0.78370000    -0.78370000    -0.78370000
   13 C                    6.0000     0.78370000     0.78370000    -0.78370000
   14 C                    6.0000    -0.78370000    -0.78370000    -0.78370000
   15 C                    6.0000     0.78370000    -0.78370000     0.78370000
   16 C                    6.0000    -0.78370000     0.78370000     0.78370000

      Atomic Mass 
      ----------- 

      H                  1.007825
      C                 12.000000


 Effective nuclear repulsion energy (a.u.)     367.6689717653

            Nuclear Dipole moment (a.u.) 
            ----------------------------
        X                 Y               Z
 ---------------- ---------------- ----------------
     0.0000000000     0.0000000000     0.0000000000

      Symmetry information
      --------------------

 Group name              Oh       
 Group number             44
 Group order              48
 No. of unique centers     2

      Symmetry unique atoms

     1    9



                                Z-matrix (autoz)
                                -------- 

 Units are Angstrom for bonds and degrees for angles

      Type          Name      I     J     K     L     M      Value
      ----------- --------  ----- ----- ----- ----- ----- ----------
    1 Stretch                  1     9                       1.08582
    2 Stretch                  2    10                       1.08582
    3 Stretch                  3    11                       1.08582
    4 Stretch                  4    12                       1.08582
    5 Stretch                  5    13                       1.08582
    6 Stretch                  6    14                       1.08582
    7 Stretch                  7    15                       1.08582
    8 Stretch                  8    16                       1.08582
    9 Stretch                  9    13                       1.56740
   10 Stretch                  9    15                       1.56740
   11 Stretch                  9    16                       1.56740
   12 Stretch                 10    14                       1.56740
   13 Stretch                 10    15                       1.56740
   14 Stretch                 10    16                       1.56740
   15 Stretch                 11    13                       1.56740
   16 Stretch                 11    14                       1.56740
   17 Stretch                 11    16                       1.56740
   18 Stretch                 12    13                       1.56740
   19 Stretch                 12    14                       1.56740
   20 Stretch                 12    15                       1.56740
   21 Bend                     1     9    13               125.26439
   22 Bend                     1     9    15               125.26439
   23 Bend                     1     9    16               125.26439
   24 Bend                     2    10    14               125.26439
   25 Bend                     2    10    15               125.26439
   26 Bend                     2    10    16               125.26439
   27 Bend                     3    11    13               125.26439
   28 Bend                     3    11    14               125.26439
   29 Bend                     3    11    16               125.26439
   30 Bend                     4    12    13               125.26439
   31 Bend                     4    12    14               125.26439
   32 Bend                     4    12    15               125.26439
   33 Bend                     5    13     9               125.26439
   34 Bend                     5    13    11               125.26439
   35 Bend                     5    13    12               125.26439
   36 Bend                     6    14    10               125.26439
   37 Bend                     6    14    11               125.26439
   38 Bend                     6    14    12               125.26439
   39 Bend                     7    15     9               125.26439
   40 Bend                     7    15    10               125.26439
   41 Bend                     7    15    12               125.26439
   42 Bend                     8    16     9               125.26439
   43 Bend                     8    16    10               125.26439
   44 Bend                     8    16    11               125.26439
   45 Bend                     9    13    11                90.00000
   46 Bend                     9    13    12                90.00000
   47 Bend                     9    15    10                90.00000
   48 Bend                     9    15    12                90.00000
   49 Bend                     9    16    10                90.00000
   50 Bend                     9    16    11                90.00000
   51 Bend                    10    14    11                90.00000
   52 Bend                    10    14    12                90.00000
   53 Bend                    10    15    12                90.00000
   54 Bend                    10    16    11                90.00000
   55 Bend                    11    13    12                90.00000
   56 Bend                    11    14    12                90.00000
   57 Bend                    13     9    15                90.00000
   58 Bend                    13     9    16                90.00000
   59 Bend                    13    11    14                90.00000
   60 Bend                    13    11    16                90.00000
   61 Bend                    13    12    14                90.00000
   62 Bend                    13    12    15                90.00000
   63 Bend                    14    10    15                90.00000
   64 Bend                    14    10    16                90.00000
   65 Bend                    14    11    16                90.00000
   66 Bend                    14    12    15                90.00000
   67 Bend                    15     9    16                90.00000
   68 Bend                    15    10    16                90.00000
   69 Torsion                  1     9    13     5           0.00000
   70 Torsion                  1     9    13    11        -135.00000
   71 Torsion                  1     9    13    12         135.00000
   72 Torsion                  1     9    15     7           0.00000
   73 Torsion                  1     9    15    10         135.00000
   74 Torsion                  1     9    15    12        -135.00000
   75 Torsion                  1     9    16     8           0.00000
   76 Torsion                  1     9    16    10        -135.00000
   77 Torsion                  1     9    16    11         135.00000
   78 Torsion                  2    10    14     6           0.00000
   79 Torsion                  2    10    14    11         135.00000
   80 Torsion                  2    10    14    12        -135.00000
   81 Torsion                  2    10    15     7           0.00000
   82 Torsion                  2    10    15     9        -135.00000
   83 Torsion                  2    10    15    12         135.00000
   84 Torsion                  2    10    16     8           0.00000
   85 Torsion                  2    10    16     9         135.00000
   86 Torsion                  2    10    16    11        -135.00000
   87 Torsion                  3    11    13     5           0.00000
   88 Torsion                  3    11    13     9         135.00000
   89 Torsion                  3    11    13    12        -135.00000
   90 Torsion                  3    11    14     6           0.00000
   91 Torsion                  3    11    14    10        -135.00000
   92 Torsion                  3    11    14    12         135.00000
   93 Torsion                  3    11    16     8           0.00000
   94 Torsion                  3    11    16     9        -135.00000
   95 Torsion                  3    11    16    10         135.00000
   96 Torsion                  4    12    13     5           0.00000
   97 Torsion                  4    12    13     9        -135.00000
   98 Torsion                  4    12    13    11         135.00000
   99 Torsion                  4    12    14     6           0.00000
  100 Torsion                  4    12    14    10         135.00000
  101 Torsion                  4    12    14    11        -135.00000
  102 Torsion                  4    12    15     7           0.00000
  103 Torsion                  4    12    15     9         135.00000
  104 Torsion                  4    12    15    10        -135.00000
  105 Torsion                  5    13     9    15        -135.00000
  106 Torsion                  5    13     9    16         135.00000
  107 Torsion                  5    13    11    14         135.00000
  108 Torsion                  5    13    11    16        -135.00000
  109 Torsion                  5    13    12    14        -135.00000
  110 Torsion                  5    13    12    15         135.00000
  111 Torsion                  6    14    10    15         135.00000
  112 Torsion                  6    14    10    16        -135.00000
  113 Torsion                  6    14    11    13        -135.00000
  114 Torsion                  6    14    11    16         135.00000
  115 Torsion                  6    14    12    13         135.00000
  116 Torsion                  6    14    12    15        -135.00000
  117 Torsion                  7    15     9    13         135.00000
  118 Torsion                  7    15     9    16        -135.00000
  119 Torsion                  7    15    10    14        -135.00000
  120 Torsion                  7    15    10    16         135.00000
  121 Torsion                  7    15    12    13        -135.00000
  122 Torsion                  7    15    12    14         135.00000
  123 Torsion                  8    16     9    13        -135.00000
  124 Torsion                  8    16     9    15         135.00000
  125 Torsion                  8    16    10    14         135.00000
  126 Torsion                  8    16    10    15        -135.00000
  127 Torsion                  8    16    11    13         135.00000
  128 Torsion                  8    16    11    14        -135.00000
  129 Torsion                  9    13    11    14         -90.00000
  130 Torsion                  9    13    11    16           0.00000
  131 Torsion                  9    13    12    14          90.00000
  132 Torsion                  9    13    12    15           0.00000
  133 Torsion                  9    15    10    14          90.00000
  134 Torsion                  9    15    10    16           0.00000
  135 Torsion                  9    15    12    13           0.00000
  136 Torsion                  9    15    12    14         -90.00000
  137 Torsion                  9    16    10    14         -90.00000
  138 Torsion                  9    16    10    15           0.00000
  139 Torsion                  9    16    11    13           0.00000
  140 Torsion                  9    16    11    14          90.00000
  141 Torsion                 10    14    11    13          90.00000
  142 Torsion                 10    14    11    16           0.00000
  143 Torsion                 10    14    12    13         -90.00000
  144 Torsion                 10    14    12    15           0.00000
  145 Torsion                 10    15     9    13         -90.00000
  146 Torsion                 10    15     9    16           0.00000
  147 Torsion                 10    15    12    13          90.00000
  148 Torsion                 10    15    12    14           0.00000
  149 Torsion                 10    16     9    13          90.00000
  150 Torsion                 10    16     9    15           0.00000
  151 Torsion                 10    16    11    13         -90.00000
  152 Torsion                 10    16    11    14           0.00000
  153 Torsion                 11    13     9    15          90.00000
  154 Torsion                 11    13     9    16           0.00000
  155 Torsion                 11    13    12    14           0.00000
  156 Torsion                 11    13    12    15         -90.00000
  157 Torsion                 11    14    10    15         -90.00000
  158 Torsion                 11    14    10    16           0.00000
  159 Torsion                 11    14    12    13           0.00000
  160 Torsion                 11    14    12    15          90.00000
  161 Torsion                 11    16     9    13           0.00000
  162 Torsion                 11    16     9    15         -90.00000
  163 Torsion                 11    16    10    14           0.00000
  164 Torsion                 11    16    10    15          90.00000
  165 Torsion                 12    13     9    15           0.00000
  166 Torsion                 12    13     9    16         -90.00000
  167 Torsion                 12    13    11    14           0.00000
  168 Torsion                 12    13    11    16          90.00000
  169 Torsion                 12    14    10    15           0.00000
  170 Torsion                 12    14    10    16          90.00000
  171 Torsion                 12    14    11    13           0.00000
  172 Torsion                 12    14    11    16         -90.00000
  173 Torsion                 12    15     9    13           0.00000
  174 Torsion                 12    15     9    16          90.00000
  175 Torsion                 12    15    10    14           0.00000
  176 Torsion                 12    15    10    16         -90.00000


            XYZ format geometry
            -------------------
    16
 geometry
 H                     1.41060000     1.41060000     1.41060000
 H                    -1.41060000    -1.41060000     1.41060000
 H                    -1.41060000     1.41060000    -1.41060000
 H                     1.41060000    -1.41060000    -1.41060000
 H                     1.41060000     1.41060000    -1.41060000
 H                    -1.41060000    -1.41060000    -1.41060000
 H                     1.41060000    -1.41060000     1.41060000
 H                    -1.41060000     1.41060000     1.41060000
 C                     0.78370000     0.78370000     0.78370000
 C                    -0.78370000    -0.78370000     0.78370000
 C                    -0.78370000     0.78370000    -0.78370000
 C                     0.78370000    -0.78370000    -0.78370000
 C                     0.78370000     0.78370000    -0.78370000
 C                    -0.78370000    -0.78370000    -0.78370000
 C                     0.78370000    -0.78370000     0.78370000
 C                    -0.78370000     0.78370000     0.78370000

 ==============================================================================
                                internuclear distances
 ------------------------------------------------------------------------------
       center one      |      center two      | atomic units |  angstroms
 ------------------------------------------------------------------------------
    9 C                |   1 H                |     2.05191  |     1.08582
   10 C                |   2 H                |     2.05191  |     1.08582
   11 C                |   3 H                |     2.05191  |     1.08582
   12 C                |   4 H                |     2.05191  |     1.08582
   13 C                |   5 H                |     2.05191  |     1.08582
   13 C                |   9 C                |     2.96196  |     1.56740
   13 C                |  11 C                |     2.96196  |     1.56740
   13 C                |  12 C                |     2.96196  |     1.56740
   14 C                |   6 H                |     2.05191  |     1.08582
   14 C                |  10 C                |     2.96196  |     1.56740
   14 C                |  11 C                |     2.96196  |     1.56740
   14 C                |  12 C                |     2.96196  |     1.56740
   15 C                |   7 H                |     2.05191  |     1.08582
   15 C                |   9 C                |     2.96196  |     1.56740
   15 C                |  10 C                |     2.96196  |     1.56740
   15 C                |  12 C                |     2.96196  |     1.56740
   16 C                |   8 H                |     2.05191  |     1.08582
   16 C                |   9 C                |     2.96196  |     1.56740
   16 C                |  10 C                |     2.96196  |     1.56740
   16 C                |  11 C                |     2.96196  |     1.56740
 ------------------------------------------------------------------------------
                         number of included internuclear distances:         20
 ==============================================================================



 ==============================================================================
                                 internuclear angles
 ------------------------------------------------------------------------------
        center 1       |       center 2       |       center 3       |  degrees
 ------------------------------------------------------------------------------
    1 H                |   9 C                |  13 C                |   125.26
    1 H                |   9 C                |  15 C                |   125.26
    1 H                |   9 C                |  16 C                |   125.26
   13 C                |   9 C                |  15 C                |    90.00
   13 C                |   9 C                |  16 C                |    90.00
   15 C                |   9 C                |  16 C                |    90.00
    2 H                |  10 C                |  14 C                |   125.26
    2 H                |  10 C                |  15 C                |   125.26
    2 H                |  10 C                |  16 C                |   125.26
   14 C                |  10 C                |  15 C                |    90.00
   14 C                |  10 C                |  16 C                |    90.00
   15 C                |  10 C                |  16 C                |    90.00
    3 H                |  11 C                |  13 C                |   125.26
    3 H                |  11 C                |  14 C                |   125.26
    3 H                |  11 C                |  16 C                |   125.26
   13 C                |  11 C                |  14 C                |    90.00
   13 C                |  11 C                |  16 C                |    90.00
   14 C                |  11 C                |  16 C                |    90.00
    4 H                |  12 C                |  13 C                |   125.26
    4 H                |  12 C                |  14 C                |   125.26
    4 H                |  12 C                |  15 C                |   125.26
   13 C                |  12 C                |  14 C                |    90.00
   13 C                |  12 C                |  15 C                |    90.00
   14 C                |  12 C                |  15 C                |    90.00
    5 H                |  13 C                |   9 C                |   125.26
    5 H                |  13 C                |  11 C                |   125.26
    5 H                |  13 C                |  12 C                |   125.26
    9 C                |  13 C                |  11 C                |    90.00
    9 C                |  13 C                |  12 C                |    90.00
   11 C                |  13 C                |  12 C                |    90.00
    6 H                |  14 C                |  10 C                |   125.26
    6 H                |  14 C                |  11 C                |   125.26
    6 H                |  14 C                |  12 C                |   125.26
   10 C                |  14 C                |  11 C                |    90.00
   10 C                |  14 C                |  12 C                |    90.00
   11 C                |  14 C                |  12 C                |    90.00
    7 H                |  15 C                |   9 C                |   125.26
    7 H                |  15 C                |  10 C                |   125.26
    7 H                |  15 C                |  12 C                |   125.26
    9 C                |  15 C                |  10 C                |    90.00
    9 C                |  15 C                |  12 C                |    90.00
   10 C                |  15 C                |  12 C                |    90.00
    8 H                |  16 C                |   9 C                |   125.26
    8 H                |  16 C                |  10 C                |   125.26
    8 H                |  16 C                |  11 C                |   125.26
    9 C                |  16 C                |  10 C                |    90.00
    9 C                |  16 C                |  11 C                |    90.00
   10 C                |  16 C                |  11 C                |    90.00
 ------------------------------------------------------------------------------
                            number of included internuclear angles:         48
 ==============================================================================



  library name resolved from: environment
  library file name is: </home/vladimir/bin/nwchem-6.6/src/basis/libraries/>
  

 **** WARNING Zero Coefficient **** on atom "               C"
 angular momentum value: 0  standard basis set name: "PC-2"
 input line that generated warning:
   126:       0.785710E+04           0.568250E-03           0.000000E+00
  

 **** WARNING Zero Coefficient **** on atom "               C"
 angular momentum value: 0  standard basis set name: "PC-2"
 input line that generated warning:
   133:       0.822020E+00           0.000000E+00           0.216890E+00
  
                      Basis "ao basis" -> "" (spherical)
                      -----
  H (Hydrogen)
  ------------
            Exponent  Coefficients 
       -------------- ---------------------------------------------------------
  1 S  7.54230000E+01  0.002407
  1 S  1.13500000E+01  0.018487
  1 S  2.59930000E+00  0.089742
  1 S  7.35130000E-01  0.281110

  2 S  2.31670000E-01  1.000000

  3 S  7.41470000E-02  1.000000

  4 P  1.60000000E+00  1.000000

  5 P  4.50000000E-01  1.000000

  6 D  1.25000000E+00  1.000000

  C (Carbon)
  ----------
            Exponent  Coefficients 
       -------------- ---------------------------------------------------------
  1 S  7.85710000E+03  0.000568
  1 S  1.17870000E+03  0.004392
  1 S  2.68320000E+02  0.022504
  1 S  7.59480000E+01  0.086653
  1 S  2.45590000E+01  0.244050
  1 S  8.62120000E+00  0.441480
  1 S  3.12780000E+00  0.353320

  2 S  1.17870000E+03 -0.000001
  2 S  2.68320000E+02 -0.000063
  2 S  7.59480000E+01 -0.000758
  2 S  2.45590000E+01 -0.007331
  2 S  8.62120000E+00 -0.038932
  2 S  3.12780000E+00 -0.088908
  2 S  8.22020000E-01  0.216890

  3 S  3.30170000E-01  1.000000

  4 S  1.14630000E-01  1.000000

  5 P  3.37750000E+01  0.006029
  5 P  7.67660000E+00  0.043228
  5 P  2.23570000E+00  0.163010
  5 P  7.64470000E-01  0.365040

  6 P  2.62320000E-01  1.000000

  7 P  8.46380000E-02  1.000000

  8 D  1.40000000E+00  1.000000

  9 D  4.50000000E-01  1.000000

 10 F  9.50000000E-01  1.000000



 Summary of "ao basis" -> "" (spherical)
 ------------------------------------------------------------------------------
       Tag                 Description            Shells   Functions and Types
 ---------------- ------------------------------  ------  ---------------------
 H                            PC-2                   6       14   3s2p1d
 C                            PC-2                  10       30   4s3p2d1f




                           NWChem Geometry Optimization
                           ----------------------------




                       cubane MP2/PC-2 geometry optimization


 maximum gradient threshold         (gmax) =   0.000450
 rms gradient threshold             (grms) =   0.000300
 maximum cartesian step threshold   (xmax) =   0.001800
 rms cartesian step threshold       (xrms) =   0.001200
 fixed trust radius                (trust) =   0.300000
 maximum step size to saddle      (sadstp) =   0.100000
 energy precision                  (eprec) =   1.0D-07
 maximum number of steps          (nptopt) =   20
 initial hessian option           (inhess) =    0
 line search option               (linopt) =    1
 hessian update option            (modupd) =    1
 saddle point option              (modsad) =    0
 initial eigen-mode to follow     (moddir) =    0
 initial variable to follow       (vardir) =    0
 follow first negative mode     (firstneg) =    T
 apply conjugacy                    (opcg) =    F
 source of zmatrix                         =   autoz   


          -------------------
          Energy Minimization
          -------------------


 Names of Z-matrix variables 
    1              2              3              4              5         
    6              7              8              9             10         
   11             12             13             14             15         
   16             17             18             19             20         
   21             22             23             24             25         
   26             27             28             29             30         
   31             32             33             34             35         
   36             37             38             39             40         
   41             42             43             44             45         
   46             47             48             49             50         
   51             52             53             54             55         
   56             57             58             59             60         
   61             62             63             64             65         
   66             67             68             69             70         
   71             72             73             74             75         
   76             77             78             79             80         
   81             82             83             84             85         
   86             87             88             89             90         
   91             92             93             94             95         
   96             97             98             99            100         
  101            102            103            104            105         
  106            107            108            109            110         
  111            112            113            114            115         
  116            117            118            119            120         
  121            122            123            124            125         
  126            127            128            129            130         
  131            132            133            134            135         
  136            137            138            139            140         
  141            142            143            144            145         
  146            147            148            149            150         
  151            152            153            154            155         
  156            157            158            159            160         
  161            162            163            164            165         
  166            167            168            169            170         
  171            172            173            174            175         
  176         

 Variables with the same non-blank name are constrained to be equal


 Using diagonal initial Hessian 
 Scaling for Hessian diagonals: bonds = 1.00  angles = 0.25  torsions = 0.10

          --------
          Step   0
          --------


                         Geometry "geometry" -> "geometry"
                         ---------------------------------

 Output coordinates in angstroms (scale by  1.889725989 to convert to a.u.)

  No.       Tag          Charge          X              Y              Z
 ---- ---------------- ---------- -------------- -------------- --------------
    1 H                    1.0000     1.41060000     1.41060000     1.41060000
    2 H                    1.0000    -1.41060000    -1.41060000     1.41060000
    3 H                    1.0000    -1.41060000     1.41060000    -1.41060000
    4 H                    1.0000     1.41060000    -1.41060000    -1.41060000
    5 H                    1.0000     1.41060000     1.41060000    -1.41060000
    6 H                    1.0000    -1.41060000    -1.41060000    -1.41060000
    7 H                    1.0000     1.41060000    -1.41060000     1.41060000
    8 H                    1.0000    -1.41060000     1.41060000     1.41060000
    9 C                    6.0000     0.78370000     0.78370000     0.78370000
   10 C                    6.0000    -0.78370000    -0.78370000     0.78370000
   11 C                    6.0000    -0.78370000     0.78370000    -0.78370000
   12 C                    6.0000     0.78370000    -0.78370000    -0.78370000
   13 C                    6.0000     0.78370000     0.78370000    -0.78370000
   14 C                    6.0000    -0.78370000    -0.78370000    -0.78370000
   15 C                    6.0000     0.78370000    -0.78370000     0.78370000
   16 C                    6.0000    -0.78370000     0.78370000     0.78370000

      Atomic Mass 
      ----------- 

      H                  1.007825
      C                 12.000000


 Effective nuclear repulsion energy (a.u.)     367.6689717653

            Nuclear Dipole moment (a.u.) 
            ----------------------------
        X                 Y               Z
 ---------------- ---------------- ----------------
     0.0000000000     0.0000000000     0.0000000000

      Symmetry information
      --------------------

 Group name              Oh       
 Group number             44
 Group order              48
 No. of unique centers     2

      Symmetry unique atoms

     1    9

                                 NWChem SCF Module
                                 -----------------


                       cubane MP2/PC-2 geometry optimization



  ao basis        = "ao basis"
  functions       =   352
  atoms           =    16
  closed shells   =    28
  open shells     =     0
  charge          =   0.00
  wavefunction    = RHF 
  input vectors   = atomic
  output vectors  = ./cubane.movecs
  use symmetry    = T
  symmetry adapt  = T


 Summary of "ao basis" -> "ao basis" (spherical)
 ------------------------------------------------------------------------------
       Tag                 Description            Shells   Functions and Types
 ---------------- ------------------------------  ------  ---------------------
 H                            PC-2                   6       14   3s2p1d
 C                            PC-2                  10       30   4s3p2d1f


      Symmetry analysis of basis
      --------------------------

        a1g        17
        a1u         1
        a2g         1
        a2u        17
        eg         26
        eu         26
        t1g        42
        t1u        90
        t2g        90
        t2u        42


 Forming initial guess at       0.3s


      Superposition of Atomic Density Guess
      -------------------------------------

 Sum of atomic energies:        -305.35410515

      Non-variational initial energy
      ------------------------------

 Total energy =    -311.966891
 1-e energy   =   -1137.985015
 2-e energy   =     458.349152
 HOMO         =      -0.299456
 LUMO         =       0.027393


      Symmetry analysis of molecular orbitals - initial
      -------------------------------------------------

  Numbering of irreducible representations: 

     1 a1g         2 a1u         3 a2g         4 a2u         5 eg      
     6 eu          7 t1g         8 t1u         9 t2g        10 t2u     

  Orbital symmetries:

     1 a1g         2 t1u         3 t1u         4 t1u         5 t2g     
     6 t2g         7 t2g         8 a2u         9 a1g        10 t1u     
    11 t1u        12 t1u        13 t2g        14 t2g        15 t2g     
    16 a1g        17 a2u        18 eg         19 eg         20 t1u     
    21 t1u        22 t1u        23 t2u        24 t2u        25 t2u     
    26 t2g        27 t2g        28 t2g        29 t1u        30 t1u     
    31 t1u        32 a1g        33 t2g        34 t2g        35 t2g     
    36 t1u        37 t1u        38 t1u     


 Starting SCF solution at       2.6s



 ----------------------------------------------
         Quadratically convergent ROHF

 Convergence threshold     :          1.000E-06
 Maximum no. of iterations :           30
 Final Fock-matrix accuracy:          1.000E-08
 ----------------------------------------------


              iter       energy          gnorm     gmax       time
             ----- ------------------- --------- --------- --------
                 1     -307.3911929919  1.00D+00  2.39D-01      7.8
                 2     -307.4726116473  3.31D-01  6.80D-02     13.0
                 3     -307.4817652175  9.95D-03  1.80D-03     25.8
                 4     -307.4817773099  1.91D-05  3.81D-06     45.4
                 5     -307.4817773100  1.95D-08  3.22D-09     65.7


       Final RHF  results 
       ------------------ 

         Total SCF energy =   -307.481777309980
      One-electron energy =  -1144.707888663169
      Two-electron energy =    469.557139587877
 Nuclear repulsion energy =    367.668971765311

        Time for solution =     63.2s



       Symmetry analysis of molecular orbitals - final
       -----------------------------------------------

  Numbering of irreducible representations: 

     1 a1g         2 a1u         3 a2g         4 a2u         5 eg      
     6 eu          7 t1g         8 t1u         9 t2g        10 t2u     

  Orbital symmetries:

     1 a1g         2 t1u         3 t1u         4 t1u         5 t2g     
     6 t2g         7 t2g         8 a2u         9 a1g        10 t1u     
    11 t1u        12 t1u        13 t2g        14 t2g        15 t2g     
    16 a1g        17 a2u        18 t1u        19 t1u        20 t1u     
    21 eg         22 eg         23 t2u        24 t2u        25 t2u     
    26 t2g        27 t2g        28 t2g        29 a1g        30 t1u     
    31 t1u        32 t1u        33 t2g        34 t2g        35 t2g     
    36 a2u        37 t1u        38 t1u     

             Final eigenvalues
             -----------------

              1      
    1  -11.2189
    2  -11.2184
    3  -11.2184
    4  -11.2184
    5  -11.2179
    6  -11.2179
    7  -11.2179
    8  -11.2174
    9   -1.2431
   10   -0.9777
   11   -0.9777
   12   -0.9777
   13   -0.7675
   14   -0.7675
   15   -0.7675
   16   -0.7105
   17   -0.6416
   18   -0.5803
   19   -0.5803
   20   -0.5803
   21   -0.5793
   22   -0.5793
   23   -0.3903
   24   -0.3903
   25   -0.3903
   26   -0.3835
   27   -0.3835
   28   -0.3835
   29    0.0984
   30    0.1194
   31    0.1194
   32    0.1194
   33    0.1400
   34    0.1400
   35    0.1400
   36    0.1644
   37    0.1913
   38    0.1913

                       ROHF Final Molecular Orbital Analysis
                       -------------------------------------

 Vector    9  Occ=2.000000D+00  E=-1.243086D+00  Symmetry=a1g
              MO Center= -1.1D-16,  5.6D-17,  2.8D-17, r^2= 1.7D+00
   Bfn.  Coefficient  Atom+Function         Bfn.  Coefficient  Atom+Function  
  ----- ------------  ---------------      ----- ------------  ---------------
   115      0.117125   9 C  s               145      0.117125  10 C  s         
   175      0.117125  11 C  s               205      0.117125  12 C  s         
   235      0.117125  13 C  s               265      0.117125  14 C  s         
   295      0.117125  15 C  s               325      0.117125  16 C  s         

 Vector   10  Occ=2.000000D+00  E=-9.776589D-01  Symmetry=t1u
              MO Center= -2.9D-15, -3.1D-16, -2.8D-16, r^2= 2.6D+00
   Bfn.  Coefficient  Atom+Function         Bfn.  Coefficient  Atom+Function  
  ----- ------------  ---------------      ----- ------------  ---------------
   115      0.217849   9 C  s               265     -0.217849  14 C  s         

 Vector   11  Occ=2.000000D+00  E=-9.776589D-01  Symmetry=t1u
              MO Center= -6.9D-17,  4.2D-17,  1.9D-16, r^2= 2.6D+00
   Bfn.  Coefficient  Atom+Function         Bfn.  Coefficient  Atom+Function  
  ----- ------------  ---------------      ----- ------------  ---------------
   145      0.199524  10 C  s               235     -0.199524  13 C  s         

 Vector   12  Occ=2.000000D+00  E=-9.776589D-01  Symmetry=t1u
              MO Center= -1.9D-16,  1.2D-16, -1.1D-16, r^2= 2.6D+00
   Bfn.  Coefficient  Atom+Function         Bfn.  Coefficient  Atom+Function  
  ----- ------------  ---------------      ----- ------------  ---------------
   175      0.184489  11 C  s               295     -0.184489  15 C  s         
   205     -0.173066  12 C  s               325      0.173066  16 C  s         

 Vector   13  Occ=2.000000D+00  E=-7.675406D-01  Symmetry=t2g
              MO Center= -1.9D-16, -1.8D-16,  9.4D-17, r^2= 4.1D+00
   Bfn.  Coefficient  Atom+Function         Bfn.  Coefficient  Atom+Function  
  ----- ------------  ---------------      ----- ------------  ---------------
   175      0.183681  11 C  s               295      0.183681  15 C  s         

 Vector   14  Occ=2.000000D+00  E=-7.675406D-01  Symmetry=t2g
              MO Center=  7.5D-15, -6.4D-15, -6.9D-15, r^2= 4.1D+00
   Bfn.  Coefficient  Atom+Function         Bfn.  Coefficient  Atom+Function  
  ----- ------------  ---------------      ----- ------------  ---------------
   205      0.193204  12 C  s               325      0.193204  16 C  s         

 Vector   15  Occ=2.000000D+00  E=-7.675406D-01  Symmetry=t2g
              MO Center=  9.3D-16,  4.8D-15,  3.4D-15, r^2= 4.1D+00
   Bfn.  Coefficient  Atom+Function         Bfn.  Coefficient  Atom+Function  
  ----- ------------  ---------------      ----- ------------  ---------------
   115      0.203107   9 C  s               265      0.203107  14 C  s         

 Vector   16  Occ=2.000000D+00  E=-7.104802D-01  Symmetry=a1g
              MO Center= -4.2D-17, -1.1D-16, -4.2D-17, r^2= 4.3D+00
   Bfn.  Coefficient  Atom+Function         Bfn.  Coefficient  Atom+Function  
  ----- ------------  ---------------      ----- ------------  ---------------
     1      0.084924   1 H  s                15      0.084924   2 H  s         
    29      0.084924   3 H  s                43      0.084924   4 H  s         
    57      0.084924   5 H  s                71      0.084924   6 H  s         
    85      0.084924   7 H  s                99      0.084924   8 H  s         
     2      0.079761   1 H  s                16      0.079761   2 H  s         

 Vector   17  Occ=2.000000D+00  E=-6.416435D-01  Symmetry=a2u
              MO Center= -9.0D-16,  1.6D-15,  2.2D-15, r^2= 5.1D+00
   Bfn.  Coefficient  Atom+Function         Bfn.  Coefficient  Atom+Function  
  ----- ------------  ---------------      ----- ------------  ---------------
     1      0.100005   1 H  s                 2      0.100461   1 H  s         
    15      0.100005   2 H  s                16      0.100461   2 H  s         
    29      0.100005   3 H  s                30      0.100461   3 H  s         
    43      0.100005   4 H  s                44      0.100461   4 H  s         
    57     -0.100005   5 H  s                58     -0.100461   5 H  s         

 Vector   18  Occ=2.000000D+00  E=-5.803376D-01  Symmetry=t1u
              MO Center=  2.4D-15, -3.3D-15,  0.0D+00, r^2= 4.2D+00
   Bfn.  Coefficient  Atom+Function         Bfn.  Coefficient  Atom+Function  
  ----- ------------  ---------------      ----- ------------  ---------------
    29      0.097013   3 H  s                85     -0.097013   7 H  s         
   177     -0.096861  11 C  px              297     -0.096861  15 C  px        
   147      0.094865  10 C  px              178      0.094845  11 C  py        
   237      0.094865  13 C  px              298      0.094845  15 C  py        
    30      0.094230   3 H  s                86     -0.094230   7 H  s         

 Vector   19  Occ=2.000000D+00  E=-5.803376D-01  Symmetry=t1u
              MO Center=  4.8D-15, -1.1D-14,  8.7D-15, r^2= 4.2D+00
   Bfn.  Coefficient  Atom+Function         Bfn.  Coefficient  Atom+Function  
  ----- ------------  ---------------      ----- ------------  ---------------
    43     -0.109109   4 H  s                99      0.109109   8 H  s         
   209      0.108383  12 C  pz              329      0.108383  16 C  pz        
    44     -0.105979   4 H  s               100      0.105979   8 H  s         
   179     -0.105574  11 C  pz              299     -0.105574  15 C  pz        
    29      0.100927   3 H  s                85     -0.100927   7 H  s         

 Vector   20  Occ=2.000000D+00  E=-5.803376D-01  Symmetry=t1u
              MO Center=  4.4D-15,  1.5D-15, -3.9D-16, r^2= 4.2D+00
   Bfn.  Coefficient  Atom+Function         Bfn.  Coefficient  Atom+Function  
  ----- ------------  ---------------      ----- ------------  ---------------
     1      0.110275   1 H  s                71     -0.110275   6 H  s         
   119      0.108862   9 C  pz              269      0.108862  14 C  pz        
     2      0.107111   1 H  s                72     -0.107111   6 H  s         
   149     -0.105333  10 C  pz              239     -0.105333  13 C  pz        
    15     -0.099995   2 H  s                57      0.099995   5 H  s         

 Vector   21  Occ=2.000000D+00  E=-5.793186D-01  Symmetry=eg
              MO Center=  3.8D-17,  4.1D-16,  0.0D+00, r^2= 2.6D+00
   Bfn.  Coefficient  Atom+Function         Bfn.  Coefficient  Atom+Function  
  ----- ------------  ---------------      ----- ------------  ---------------
   118     -0.107631   9 C  py              148      0.107631  10 C  py        
   178     -0.107631  11 C  py              208      0.107631  12 C  py        
   238     -0.107631  13 C  py              268      0.107631  14 C  py        
   298      0.107631  15 C  py              328     -0.107631  16 C  py        
   117      0.102196   9 C  px              147     -0.102196  10 C  px        

 Vector   22  Occ=2.000000D+00  E=-5.793186D-01  Symmetry=eg
              MO Center= -1.5D-15, -3.4D-16,  7.8D-16, r^2= 2.6D+00
   Bfn.  Coefficient  Atom+Function         Bfn.  Coefficient  Atom+Function  
  ----- ------------  ---------------      ----- ------------  ---------------
   119      0.121144   9 C  pz              149      0.121144  10 C  pz        
   179     -0.121144  11 C  pz              209     -0.121144  12 C  pz        
   239     -0.121144  13 C  pz              269     -0.121144  14 C  pz        
   299      0.121144  15 C  pz              329      0.121144  16 C  pz        

 Vector   23  Occ=2.000000D+00  E=-3.902681D-01  Symmetry=t2u
              MO Center= -1.4D-17,  3.5D-17, -8.3D-17, r^2= 2.9D+00
   Bfn.  Coefficient  Atom+Function         Bfn.  Coefficient  Atom+Function  
  ----- ------------  ---------------      ----- ------------  ---------------
   179      0.159811  11 C  pz              209     -0.159811  12 C  pz        
   299      0.159811  15 C  pz              329     -0.159811  16 C  pz        
   182      0.158924  11 C  pz              212     -0.158924  12 C  pz        
   302      0.158924  15 C  pz              332     -0.158924  16 C  pz        

 Vector   24  Occ=2.000000D+00  E=-3.902681D-01  Symmetry=t2u
              MO Center= -8.0D-16, -2.1D-15, -2.8D-17, r^2= 2.9D+00
   Bfn.  Coefficient  Atom+Function         Bfn.  Coefficient  Atom+Function  
  ----- ------------  ---------------      ----- ------------  ---------------
   119      0.160955   9 C  pz              149     -0.160955  10 C  pz        
   239     -0.160955  13 C  pz              269      0.160955  14 C  pz        
   122      0.160062   9 C  pz              152     -0.160062  10 C  pz        
   242     -0.160062  13 C  pz              272      0.160062  14 C  pz        

 Vector   25  Occ=2.000000D+00  E=-3.902681D-01  Symmetry=t2u
              MO Center= -1.8D-15, -1.6D-15, -4.4D-16, r^2= 2.9D+00
   Bfn.  Coefficient  Atom+Function         Bfn.  Coefficient  Atom+Function  
  ----- ------------  ---------------      ----- ------------  ---------------
   118      0.140420   9 C  py              178     -0.140420  11 C  py        
   268      0.140420  14 C  py              298     -0.140420  15 C  py        
   121      0.139641   9 C  py              181     -0.139641  11 C  py        
   271      0.139641  14 C  py              301     -0.139641  15 C  py        

 Vector   26  Occ=2.000000D+00  E=-3.834937D-01  Symmetry=t2g
              MO Center= -1.6D-15,  2.1D-14,  1.1D-14, r^2= 3.5D+00
   Bfn.  Coefficient  Atom+Function         Bfn.  Coefficient  Atom+Function  
  ----- ------------  ---------------      ----- ------------  ---------------
   208      0.149733  12 C  py              328     -0.149733  16 C  py        
   118      0.148982   9 C  py              268     -0.148982  14 C  py        
   121      0.146392   9 C  py              211      0.146518  12 C  py        
   271     -0.146392  14 C  py              331     -0.146518  16 C  py        
   151      0.145254  10 C  py              181      0.145380  11 C  py        

 Vector   27  Occ=2.000000D+00  E=-3.834937D-01  Symmetry=t2g
              MO Center=  3.2D-14, -1.8D-14,  2.3D-14, r^2= 3.5D+00
   Bfn.  Coefficient  Atom+Function         Bfn.  Coefficient  Atom+Function  
  ----- ------------  ---------------      ----- ------------  ---------------
   176      0.132647  11 C  s               296      0.132647  15 C  s         
    30     -0.124047   3 H  s                86     -0.124047   7 H  s         
   177      0.119389  11 C  px              297     -0.119389  15 C  px        

 Vector   28  Occ=2.000000D+00  E=-3.834937D-01  Symmetry=t2g
              MO Center=  2.7D-15, -2.9D-15,  1.4D-15, r^2= 3.5D+00
   Bfn.  Coefficient  Atom+Function         Bfn.  Coefficient  Atom+Function  
  ----- ------------  ---------------      ----- ------------  ---------------
   146      0.135629  10 C  s               236      0.135629  13 C  s         
    16     -0.126836   2 H  s                58     -0.126836   5 H  s         

 Vector   29  Occ=0.000000D+00  E= 9.838313D-02  Symmetry=a1g
              MO Center=  8.1D-15, -1.5D-14, -1.9D-14, r^2= 1.6D+01
   Bfn.  Coefficient  Atom+Function         Bfn.  Coefficient  Atom+Function  
  ----- ------------  ---------------      ----- ------------  ---------------
   116     -1.265723   9 C  s               146     -1.265723  10 C  s         
   176     -1.265723  11 C  s               206     -1.265723  12 C  s         
   236     -1.265723  13 C  s               266     -1.265723  14 C  s         
   296     -1.265723  15 C  s               326     -1.265723  16 C  s         
     3      1.206158   1 H  s                17      1.206158   2 H  s         

 Vector   30  Occ=0.000000D+00  E= 1.193971D-01  Symmetry=t1u
              MO Center=  4.7D-13,  5.9D-13, -2.6D-13, r^2= 1.5D+01
   Bfn.  Coefficient  Atom+Function         Bfn.  Coefficient  Atom+Function  
  ----- ------------  ---------------      ----- ------------  ---------------
    17      2.189084   2 H  s                59     -2.189084   5 H  s         
    45     -1.565154   4 H  s               101      1.565154   8 H  s         
   154      0.932070  10 C  py              244      0.932070  13 C  py        
   153      0.926259  10 C  px              155     -0.924393  10 C  pz        
   243      0.926259  13 C  px              245     -0.924393  13 C  pz        

 Vector   31  Occ=0.000000D+00  E= 1.193971D-01  Symmetry=t1u
              MO Center= -6.2D-15,  9.6D-15, -1.2D-14, r^2= 1.5D+01
   Bfn.  Coefficient  Atom+Function         Bfn.  Coefficient  Atom+Function  
  ----- ------------  ---------------      ----- ------------  ---------------
    31      1.977675   3 H  s                87     -1.977675   7 H  s         
    45     -1.685526   4 H  s               101      1.685526   8 H  s         
   185      0.843517  11 C  pz              305      0.843517  15 C  pz        
   183      0.838420  11 C  px              303      0.838420  15 C  px        
   184     -0.832046  11 C  py              304     -0.832046  15 C  py        

 Vector   32  Occ=0.000000D+00  E= 1.193971D-01  Symmetry=t1u
              MO Center= -3.5D-13, -1.1D-12,  3.6D-13, r^2= 1.5D+01
   Bfn.  Coefficient  Atom+Function         Bfn.  Coefficient  Atom+Function  
  ----- ------------  ---------------      ----- ------------  ---------------
     3      2.324667   1 H  s                73     -2.324667   6 H  s         
    31     -1.214769   3 H  s                87      1.214769   7 H  s         
   123     -0.983954   9 C  px              124     -0.987391   9 C  py        
   125     -0.983728   9 C  pz              273     -0.983954  14 C  px        
   274     -0.987391  14 C  py              275     -0.983728  14 C  pz        

 Vector   33  Occ=0.000000D+00  E= 1.399726D-01  Symmetry=t2g
              MO Center=  8.4D-13,  2.7D-14,  1.6D-13, r^2= 1.8D+01
   Bfn.  Coefficient  Atom+Function         Bfn.  Coefficient  Atom+Function  
  ----- ------------  ---------------      ----- ------------  ---------------
    45      4.407528   4 H  s               101      4.407528   8 H  s         
     3     -3.061716   1 H  s                73     -3.061716   6 H  s         
   215      3.026407  12 C  pz              335     -3.026407  16 C  pz        
   214      2.960761  12 C  py              334     -2.960761  16 C  py        
   213     -2.785291  12 C  px              333      2.785291  16 C  px        

 Vector   34  Occ=0.000000D+00  E= 1.399726D-01  Symmetry=t2g
              MO Center= -1.8D-12, -3.6D-12,  1.9D-12, r^2= 1.8D+01
   Bfn.  Coefficient  Atom+Function         Bfn.  Coefficient  Atom+Function  
  ----- ------------  ---------------      ----- ------------  ---------------
    17      4.211773   2 H  s                59      4.211773   5 H  s         
    31     -3.364542   3 H  s                87     -3.364542   7 H  s         
   154      2.926363  10 C  py              244     -2.926363  13 C  py        
   155     -2.833155  10 C  pz              245      2.833155  13 C  pz        
   153      2.623323  10 C  px              243     -2.623323  13 C  px        

 Vector   35  Occ=0.000000D+00  E= 1.399726D-01  Symmetry=t2g
              MO Center=  5.9D-14,  4.7D-13,  1.4D-13, r^2= 1.8D+01
   Bfn.  Coefficient  Atom+Function         Bfn.  Coefficient  Atom+Function  
  ----- ------------  ---------------      ----- ------------  ---------------
     3      3.492851   1 H  s                73      3.492851   6 H  s         
    31     -3.329267   3 H  s                87     -3.329267   7 H  s         
   123     -2.571202   9 C  px              273      2.571202  14 C  px        
   183     -2.472182  11 C  px              303      2.472182  15 C  px        
   125     -2.252205   9 C  pz              275      2.252205  14 C  pz        

 Vector   36  Occ=0.000000D+00  E= 1.644232D-01  Symmetry=a2u
              MO Center=  7.5D-13,  3.4D-12, -2.3D-12, r^2= 2.0D+01
   Bfn.  Coefficient  Atom+Function         Bfn.  Coefficient  Atom+Function  
  ----- ------------  ---------------      ----- ------------  ---------------
   116      5.314023   9 C  s               146      5.314023  10 C  s         
   176      5.314023  11 C  s               206      5.314023  12 C  s         
   236     -5.314023  13 C  s               266     -5.314023  14 C  s         
   296     -5.314023  15 C  s               326     -5.314023  16 C  s         
     3      3.924918   1 H  s                17      3.924918   2 H  s         

 Vector   37  Occ=0.000000D+00  E= 1.912954D-01  Symmetry=t1u
              MO Center=  5.6D-13, -7.8D-14,  9.3D-14, r^2= 9.6D+00
   Bfn.  Coefficient  Atom+Function         Bfn.  Coefficient  Atom+Function  
  ----- ------------  ---------------      ----- ------------  ---------------
     3      1.635814   1 H  s                73     -1.635814   6 H  s         
    31     -1.494256   3 H  s                87      1.494256   7 H  s         
   125     -1.207527   9 C  pz              275     -1.207527  14 C  pz        
   185     -1.165623  11 C  pz              305     -1.165623  15 C  pz        
   116      0.970798   9 C  s               266     -0.970798  14 C  s         

 Vector   38  Occ=0.000000D+00  E= 1.912954D-01  Symmetry=t1u
              MO Center= -1.8D-13,  2.3D-13, -2.2D-13, r^2= 9.6D+00
   Bfn.  Coefficient  Atom+Function         Bfn.  Coefficient  Atom+Function  
  ----- ------------  ---------------      ----- ------------  ---------------
    45      1.911793   4 H  s               101     -1.911793   8 H  s         
    31     -1.460345   3 H  s                87      1.460345   7 H  s         
   214      1.152843  12 C  py              334      1.152843  16 C  py        
   206      1.134582  12 C  s               326     -1.134582  16 C  s         
   213     -1.048326  12 C  px              333     -1.048326  16 C  px        

 Vector   39  Occ=0.000000D+00  E= 1.912954D-01  Symmetry=t1u
              MO Center= -2.9D-13, -2.2D-13,  3.0D-13, r^2= 9.6D+00
   Bfn.  Coefficient  Atom+Function         Bfn.  Coefficient  Atom+Function  
  ----- ------------  ---------------      ----- ------------  ---------------
    17      2.009458   2 H  s                59     -2.009458   5 H  s         
     3     -1.276495   1 H  s                73      1.276495   6 H  s         
   146      1.192543  10 C  s               236     -1.192543  13 C  s         
   153      1.135637  10 C  px              243      1.135637  13 C  px        
   154      1.096024  10 C  py              244      1.096024  13 C  py        

 Vector   40  Occ=0.000000D+00  E= 2.590194D-01  Symmetry=eg
              MO Center=  1.4D-14,  2.3D-14, -5.1D-15, r^2= 8.5D+00
   Bfn.  Coefficient  Atom+Function         Bfn.  Coefficient  Atom+Function  
  ----- ------------  ---------------      ----- ------------  ---------------
   124      0.282233   9 C  py              154     -0.282233  10 C  py        
   184      0.282233  11 C  py              214     -0.282233  12 C  py        
   244      0.282233  13 C  py              274     -0.282233  14 C  py        
   304     -0.282233  15 C  py              334      0.282233  16 C  py        
   123     -0.229573   9 C  px              153      0.229573  10 C  px        

 Vector   41  Occ=0.000000D+00  E= 2.590194D-01  Symmetry=eg
              MO Center=  9.6D-16, -3.1D-16, -8.9D-16, r^2= 8.5D+00
   Bfn.  Coefficient  Atom+Function         Bfn.  Coefficient  Atom+Function  
  ----- ------------  ---------------      ----- ------------  ---------------
   125      0.295491   9 C  pz              155      0.295491  10 C  pz        
   185     -0.295491  11 C  pz              215     -0.295491  12 C  pz        
   245     -0.295491  13 C  pz              275     -0.295491  14 C  pz        
   305      0.295491  15 C  pz              335      0.295491  16 C  pz        
   123     -0.193351   9 C  px              153      0.193351  10 C  px        

 Vector   42  Occ=0.000000D+00  E= 3.039610D-01  Symmetry=t2g
              MO Center=  3.6D-13,  2.8D-13, -7.3D-13, r^2= 1.2D+01
   Bfn.  Coefficient  Atom+Function         Bfn.  Coefficient  Atom+Function  
  ----- ------------  ---------------      ----- ------------  ---------------
   146      5.989090  10 C  s               236      5.989090  13 C  s         
   206     -4.957901  12 C  s               326     -4.957901  16 C  s         
    17      3.606590   2 H  s                59      3.606590   5 H  s         
   154      3.236555  10 C  py              244     -3.236555  13 C  py        
   214     -3.002870  12 C  py              334      3.002870  16 C  py        

 Vector   43  Occ=0.000000D+00  E= 3.039610D-01  Symmetry=t2g
              MO Center= -8.9D-15,  2.4D-14,  2.9D-14, r^2= 1.2D+01
   Bfn.  Coefficient  Atom+Function         Bfn.  Coefficient  Atom+Function  
  ----- ------------  ---------------      ----- ------------  ---------------
   176      6.701700  11 C  s               296      6.701700  15 C  s         
    31      4.035719   3 H  s                87      4.035719   7 H  s         
   206     -3.405921  12 C  s               326     -3.405921  16 C  s         
   185      3.253946  11 C  pz              305     -3.253946  15 C  pz        
   184     -3.019983  11 C  py              304      3.019983  15 C  py        

 Vector   44  Occ=0.000000D+00  E= 3.039610D-01  Symmetry=t2g
              MO Center=  4.5D-14,  8.5D-14,  2.7D-14, r^2= 1.2D+01
   Bfn.  Coefficient  Atom+Function         Bfn.  Coefficient  Atom+Function  
  ----- ------------  ---------------      ----- ------------  ---------------
   116      6.514459   9 C  s               266      6.514459  14 C  s         
     3      3.922964   1 H  s                73      3.922964   6 H  s         
   206     -3.242117  12 C  s               326     -3.242117  16 C  s         
   123     -3.151248   9 C  px              273      3.151248  14 C  px        
   125     -3.116900   9 C  pz              275      3.116900  14 C  pz        

 Vector   45  Occ=0.000000D+00  E= 3.164099D-01  Symmetry=t1g
              MO Center= -2.2D-14,  4.7D-15, -9.3D-15, r^2= 8.2D+00
   Bfn.  Coefficient  Atom+Function         Bfn.  Coefficient  Atom+Function  
  ----- ------------  ---------------      ----- ------------  ---------------
   185      2.075761  11 C  pz              215     -2.075761  12 C  pz        
   305     -2.075761  15 C  pz              335      2.075761  16 C  pz        
   124     -1.254524   9 C  py              184      1.254524  11 C  py        
   274      1.254524  14 C  py              304     -1.254524  15 C  py        
   123      1.226507   9 C  px              213     -1.226507  12 C  px        

 Vector   46  Occ=0.000000D+00  E= 3.164099D-01  Symmetry=t1g
              MO Center=  2.7D-15, -2.8D-14, -6.7D-15, r^2= 8.2D+00
   Bfn.  Coefficient  Atom+Function         Bfn.  Coefficient  Atom+Function  
  ----- ------------  ---------------      ----- ------------  ---------------
   154      1.913909  10 C  py              214     -1.913909  12 C  py        
   244     -1.913909  13 C  py              334      1.913909  16 C  py        
   123      1.696145   9 C  px              213     -1.696145  12 C  px        
   273     -1.696145  14 C  px              333      1.696145  16 C  px        
   125     -1.211775   9 C  pz              155      1.211775  10 C  pz        

 Vector   47  Occ=0.000000D+00  E= 3.164099D-01  Symmetry=t1g
              MO Center= -1.8D-14, -1.6D-14,  5.7D-15, r^2= 8.2D+00
   Bfn.  Coefficient  Atom+Function         Bfn.  Coefficient  Atom+Function  
  ----- ------------  ---------------      ----- ------------  ---------------
   153      1.795625  10 C  px              183     -1.795625  11 C  px        
   243     -1.795625  13 C  px              303      1.795625  15 C  px        
   125     -1.709534   9 C  pz              155      1.709534  10 C  pz        
   245     -1.709534  13 C  pz              275      1.709534  14 C  pz        
   124      1.607248   9 C  py              184     -1.607248  11 C  py        

 Vector   48  Occ=0.000000D+00  E= 3.244864D-01  Symmetry=t2u
              MO Center= -1.8D-14, -5.0D-15,  1.2D-14, r^2= 9.7D+00
   Bfn.  Coefficient  Atom+Function         Bfn.  Coefficient  Atom+Function  
  ----- ------------  ---------------      ----- ------------  ---------------
   153      0.708445  10 C  px              183     -0.708445  11 C  px        
   243      0.708445  13 C  px              303     -0.708445  15 C  px        
   154     -0.634646  10 C  py              214      0.634646  12 C  py        
   244     -0.634646  13 C  py              334      0.634646  16 C  py        
   185      0.465818  11 C  pz              215     -0.465818  12 C  pz        

 Vector   49  Occ=0.000000D+00  E= 3.244864D-01  Symmetry=t2u
              MO Center=  2.9D-14, -1.1D-15, -1.2D-14, r^2= 9.7D+00
   Bfn.  Coefficient  Atom+Function         Bfn.  Coefficient  Atom+Function  
  ----- ------------  ---------------      ----- ------------  ---------------
   124      0.688886   9 C  py              184     -0.688886  11 C  py        
   274      0.688886  14 C  py              304     -0.688886  15 C  py        
   185     -0.622994  11 C  pz              215      0.622994  12 C  pz        
   305     -0.622994  15 C  pz              335      0.622994  16 C  pz        
   123     -0.576860   9 C  px              213      0.576860  12 C  px        

 Vector   50  Occ=0.000000D+00  E= 3.244864D-01  Symmetry=t2u
              MO Center=  1.5D-14,  2.8D-14,  2.6D-14, r^2= 9.7D+00
   Bfn.  Coefficient  Atom+Function         Bfn.  Coefficient  Atom+Function  
  ----- ------------  ---------------      ----- ------------  ---------------
   125      0.767620   9 C  pz              155     -0.767620  10 C  pz        
   245     -0.767620  13 C  pz              275      0.767620  14 C  pz        
   123     -0.495950   9 C  px              213      0.495950  12 C  px        
   273     -0.495950  14 C  px              333      0.495950  16 C  px        
   154     -0.449814  10 C  py              214      0.449814  12 C  py        

 Vector   51  Occ=0.000000D+00  E= 3.276293D-01  Symmetry=a1g
              MO Center=  9.9D-15,  2.1D-16, -3.5D-14, r^2= 6.4D+00
   Bfn.  Coefficient  Atom+Function         Bfn.  Coefficient  Atom+Function  
  ----- ------------  ---------------      ----- ------------  ---------------
     2      0.666756   1 H  s                16      0.666756   2 H  s         
    30      0.666756   3 H  s                44      0.666756   4 H  s         
    58      0.666756   5 H  s                72      0.666756   6 H  s         
    86      0.666756   7 H  s               100      0.666756   8 H  s         
     3     -0.427116   1 H  s                17     -0.427116   2 H  s         

 Vector   52  Occ=0.000000D+00  E= 4.094463D-01  Symmetry=a2u
              MO Center= -2.6D-14, -1.0D-13,  1.3D-13, r^2= 1.5D+01
   Bfn.  Coefficient  Atom+Function         Bfn.  Coefficient  Atom+Function  
  ----- ------------  ---------------      ----- ------------  ---------------
   116     11.847358   9 C  s               146     11.847358  10 C  s         
   176     11.847358  11 C  s               206     11.847358  12 C  s         
   236    -11.847358  13 C  s               266    -11.847358  14 C  s         
   296    -11.847358  15 C  s               326    -11.847358  16 C  s         
   123     -5.384202   9 C  px              124     -5.384202   9 C  py        

 Vector   53  Occ=0.000000D+00  E= 4.198197D-01  Symmetry=eu
              MO Center= -4.9D-15,  3.1D-14,  1.1D-14, r^2= 1.1D+01
   Bfn.  Coefficient  Atom+Function         Bfn.  Coefficient  Atom+Function  
  ----- ------------  ---------------      ----- ------------  ---------------
   123      4.348961   9 C  px              153     -4.348961  10 C  px        
   183     -4.348961  11 C  px              213      4.348961  12 C  px        
   243     -4.348961  13 C  px              273      4.348961  14 C  px        
   303     -4.348961  15 C  px              333      4.348961  16 C  px        
   124     -3.943582   9 C  py              154      3.943582  10 C  py        

 Vector   54  Occ=0.000000D+00  E= 4.198197D-01  Symmetry=eu
              MO Center= -2.4D-14, -3.5D-14,  1.3D-13, r^2= 1.1D+01
   Bfn.  Coefficient  Atom+Function         Bfn.  Coefficient  Atom+Function  
  ----- ------------  ---------------      ----- ------------  ---------------
   125      4.787702   9 C  pz              155      4.787702  10 C  pz        
   185     -4.787702  11 C  pz              215     -4.787702  12 C  pz        
   245      4.787702  13 C  pz              275      4.787702  14 C  pz        
   305     -4.787702  15 C  pz              335     -4.787702  16 C  pz        
   124     -2.744919   9 C  py              154      2.744919  10 C  py        

 Vector   55  Occ=0.000000D+00  E= 4.199760D-01  Symmetry=t1u
              MO Center=  5.5D-13, -9.1D-13,  1.1D-12, r^2= 1.0D+01
   Bfn.  Coefficient  Atom+Function         Bfn.  Coefficient  Atom+Function  
  ----- ------------  ---------------      ----- ------------  ---------------
    31      3.620879   3 H  s                87     -3.620879   7 H  s         
   183      2.890716  11 C  px              303      2.890716  15 C  px        
   184     -2.723382  11 C  py              304     -2.723382  15 C  py        
    45     -2.607039   4 H  s               101      2.607039   8 H  s         
   185      2.551590  11 C  pz              305      2.551590  15 C  pz        

 Vector   56  Occ=0.000000D+00  E= 4.199760D-01  Symmetry=t1u
              MO Center= -3.9D-14, -1.2D-13,  6.4D-14, r^2= 1.0D+01
   Bfn.  Coefficient  Atom+Function         Bfn.  Coefficient  Atom+Function  
  ----- ------------  ---------------      ----- ------------  ---------------
    17      3.998871   2 H  s                59     -3.998871   5 H  s         
   154      3.016288  10 C  py              155     -3.017151  10 C  pz        
   244      3.016288  13 C  py              245     -3.017151  13 C  pz        
   153      2.984682  10 C  px              243      2.984682  13 C  px        
    31     -1.508544   3 H  s                87      1.508544   7 H  s         

 Vector   57  Occ=0.000000D+00  E= 4.199760D-01  Symmetry=t1u
              MO Center=  7.2D-13,  9.2D-13,  3.5D-13, r^2= 1.0D+01
   Bfn.  Coefficient  Atom+Function         Bfn.  Coefficient  Atom+Function  
  ----- ------------  ---------------      ----- ------------  ---------------
     3      3.613397   1 H  s                73     -3.613397   6 H  s         
   125     -2.857374   9 C  pz              275     -2.857374  14 C  pz        
    45     -2.769430   4 H  s               101      2.769430   8 H  s         
   124     -2.765532   9 C  py              274     -2.765532  14 C  py        
   123     -2.525909   9 C  px              273     -2.525909  14 C  px        

 Vector   58  Occ=0.000000D+00  E= 4.264704D-01  Symmetry=a1g
              MO Center= -1.4D-12,  1.1D-12,  1.0D-14, r^2= 1.2D+01
   Bfn.  Coefficient  Atom+Function         Bfn.  Coefficient  Atom+Function  
  ----- ------------  ---------------      ----- ------------  ---------------
   116      2.756646   9 C  s               146      2.756646  10 C  s         
   176      2.756646  11 C  s               206      2.756646  12 C  s         
   236      2.756646  13 C  s               266      2.756646  14 C  s         
   296      2.756646  15 C  s               326      2.756646  16 C  s         
     3     -1.929446   1 H  s                17     -1.929446   2 H  s         

 Vector   59  Occ=0.000000D+00  E= 4.427668D-01  Symmetry=t2g
              MO Center= -1.3D-12,  5.7D-13,  2.8D-13, r^2= 1.3D+01
   Bfn.  Coefficient  Atom+Function         Bfn.  Coefficient  Atom+Function  
  ----- ------------  ---------------      ----- ------------  ---------------
   124     -6.639842   9 C  py              274      6.639842  14 C  py        
   125     -6.260413   9 C  pz              275      6.260413  14 C  pz        
     3      6.050306   1 H  s                73      6.050306   6 H  s         
   123     -5.593673   9 C  px              273      5.593673  14 C  px        
   214     -5.123314  12 C  py              334      5.123314  16 C  py        

 Vector   60  Occ=0.000000D+00  E= 4.427668D-01  Symmetry=t2g
              MO Center= -5.7D-13,  9.3D-13, -2.8D-12, r^2= 1.3D+01
   Bfn.  Coefficient  Atom+Function         Bfn.  Coefficient  Atom+Function  
  ----- ------------  ---------------      ----- ------------  ---------------
   183      6.526746  11 C  px              303     -6.526746  15 C  px        
    31      5.662022   3 H  s                87      5.662022   7 H  s         
   184     -5.603161  11 C  py              304      5.603161  15 C  py        
   213      5.300062  12 C  px              333     -5.300062  16 C  px        
   185      5.177155  11 C  pz              305     -5.177155  15 C  pz        

 Vector   61  Occ=0.000000D+00  E= 4.427668D-01  Symmetry=t2g
              MO Center=  1.2D-12, -9.7D-13,  2.2D-13, r^2= 1.3D+01
   Bfn.  Coefficient  Atom+Function         Bfn.  Coefficient  Atom+Function  
  ----- ------------  ---------------      ----- ------------  ---------------
   155     -6.845090  10 C  pz              245      6.845090  13 C  pz        
    17      6.264226   2 H  s                59      6.264226   5 H  s         
   154      6.234066  10 C  py              244     -6.234066  13 C  py        
   153      6.068657  10 C  px              243     -6.068657  13 C  px        
   146      4.813031  10 C  s               236      4.813031  13 C  s         

 Vector   62  Occ=0.000000D+00  E= 4.848494D-01  Symmetry=t1u
              MO Center=  2.2D-13, -3.8D-14, -3.2D-14, r^2= 7.3D+00
   Bfn.  Coefficient  Atom+Function         Bfn.  Coefficient  Atom+Function  
  ----- ------------  ---------------      ----- ------------  ---------------
    17      1.484899   2 H  s                59     -1.484899   5 H  s         
    45     -1.196828   4 H  s               101      1.196828   8 H  s         
   154      1.142459  10 C  py              244      1.142459  13 C  py        
   153      1.094384  10 C  px              243      1.094384  13 C  px        
   214     -0.994827  12 C  py              334     -0.994827  16 C  py        

 Vector   63  Occ=0.000000D+00  E= 4.848494D-01  Symmetry=t1u
              MO Center= -9.3D-14, -7.2D-14, -2.3D-14, r^2= 7.3D+00
   Bfn.  Coefficient  Atom+Function         Bfn.  Coefficient  Atom+Function  
  ----- ------------  ---------------      ----- ------------  ---------------
     3      1.779944   1 H  s                73     -1.779944   6 H  s         
   125     -1.328340   9 C  pz              275     -1.328340  14 C  pz        
   123     -1.224393   9 C  px              273     -1.224393  14 C  px        
   124     -1.196626   9 C  py              274     -1.196626  14 C  py        
    17     -1.145545   2 H  s                59      1.145545   5 H  s         

 Vector   64  Occ=0.000000D+00  E= 4.848494D-01  Symmetry=t1u
              MO Center=  1.3D-13, -1.4D-13, -1.5D-13, r^2= 7.3D+00
   Bfn.  Coefficient  Atom+Function         Bfn.  Coefficient  Atom+Function  
  ----- ------------  ---------------      ----- ------------  ---------------
    31      1.655206   3 H  s                87     -1.655206   7 H  s         
    45     -1.386042   4 H  s               101      1.386042   8 H  s         
   185      1.280880  11 C  pz              305      1.280880  15 C  pz        
   215     -1.142938  12 C  pz              335     -1.142938  16 C  pz        
   184     -1.108992  11 C  py              304     -1.108992  15 C  py        

 Vector   65  Occ=0.000000D+00  E= 5.304205D-01  Symmetry=t1u
              MO Center= -1.9D-13, -5.3D-14,  1.4D-13, r^2= 7.6D+00
   Bfn.  Coefficient  Atom+Function         Bfn.  Coefficient  Atom+Function  
  ----- ------------  ---------------      ----- ------------  ---------------
   146     -1.668927  10 C  s               236      1.668927  13 C  s         
   116      1.553790   9 C  s               266     -1.553790  14 C  s         
    16      1.462403   2 H  s                58     -1.462403   5 H  s         
     2     -1.361514   1 H  s                72      1.361514   6 H  s         
   155     -1.315080  10 C  pz              245     -1.315080  13 C  pz        


 center of mass
 --------------
 x =   0.00000000 y =   0.00000000 z =   0.00000000

 moments of inertia (a.u.)
 ------------------
         535.693401356527           0.000000000000           0.000000000000
           0.000000000000         535.693401356527           0.000000000000
           0.000000000000           0.000000000000         535.693401356527

  Mulliken analysis of the total density
  --------------------------------------

    Atom       Charge   Shell Charges
 -----------   ------   -------------------------------------------------------
    1 H    1     0.98   0.43  0.48  0.02  0.01  0.04  0.00
    2 H    1     0.98   0.43  0.48  0.02  0.01  0.04  0.00
    3 H    1     0.98   0.43  0.48  0.02  0.01  0.04  0.00
    4 H    1     0.98   0.43  0.48  0.02  0.01  0.04  0.00
    5 H    1     0.98   0.43  0.48  0.02  0.01  0.04  0.00
    6 H    1     0.98   0.43  0.48  0.02  0.01  0.04  0.00
    7 H    1     0.98   0.43  0.48  0.02  0.01  0.04  0.00
    8 H    1     0.98   0.43  0.48  0.02  0.01  0.04  0.00
    9 C    6     6.02   2.01  0.21  0.62  0.15  1.27  1.47  0.18  0.01  0.10  0.01
   10 C    6     6.02   2.01  0.21  0.62  0.15  1.27  1.47  0.18  0.01  0.10  0.01
   11 C    6     6.02   2.01  0.21  0.62  0.15  1.27  1.47  0.18  0.01  0.10  0.01
   12 C    6     6.02   2.01  0.21  0.62  0.15  1.27  1.47  0.18  0.01  0.10  0.01
   13 C    6     6.02   2.01  0.21  0.62  0.15  1.27  1.47  0.18  0.01  0.10  0.01
   14 C    6     6.02   2.01  0.21  0.62  0.15  1.27  1.47  0.18  0.01  0.10  0.01
   15 C    6     6.02   2.01  0.21  0.62  0.15  1.27  1.47  0.18  0.01  0.10  0.01
   16 C    6     6.02   2.01  0.21  0.62  0.15  1.27  1.47  0.18  0.01  0.10  0.01

       Multipole analysis of the density wrt the origin
       ------------------------------------------------

     L   x y z        total         open         nuclear
     -   - - -        -----         ----         -------
     0   0 0 0     -0.000000      0.000000     56.000000

     1   1 0 0     -0.000000      0.000000      0.000000
     1   0 1 0      0.000000      0.000000      0.000000
     1   0 0 1     -0.000000      0.000000      0.000000

     2   2 0 0    -34.946092      0.000000    162.123649
     2   1 1 0     -0.000000      0.000000      0.000000
     2   1 0 1     -0.000000      0.000000      0.000000
     2   0 2 0    -34.946092      0.000000    162.123649
     2   0 1 1     -0.000000      0.000000      0.000000
     2   0 0 2    -34.946092      0.000000    162.123649

                   NWChem MP2 Semi-direct Energy/Gradient Module
                   ---------------------------------------------


                       cubane MP2/PC-2 geometry optimization


  Basis functions       =    352
  Molecular orbitals    =    352
  Frozen core           =      8
  Frozen virtuals       =      0
  Active alpha occupied =     20
  Active beta occupied  =     20
  Active alpha virtual  =    324
  Active beta virtual   =    324
  Use MO symmetry       = F
  Use skeleton AO sym   = T

  AO/Fock/Back tols     =   1.0D-09  1.0D-09  1.0D-09

 GA uses MA = F    GA memory limited = T

 Available: 
  local mem=  2.62D+07
 global mem=  2.55D+07
 local disk=  1.45D+10
  mp2_memr nvloc                   324
  nvloc new                   324
   1 passes of  20:        4638812                    5041313                 927359352.

 Semi-direct pass number   1 of   1  for RHF alpha+beta  at       64.3s
  vrange nnbf                 59620
Node 0 wrote   3090.7 Mb in      1.1 s     Agg I/O rate:  2711.1 Mb/s
 Done moints_semi at      284.5s
  mp2_eaf for ta                     -1
  mp2_eaf for tb                     -1
 Done maket at      293.3s
 Done pijab at      294.5s
 Done wijab at      296.1s
 Done lai at      345.2s
 Done nonsep at      385.4s
 Done multipass loop at      385.5s


          -------------------------------------------
          SCF energy                -307.481777309980
          Correlation energy          -1.277274260332
[...]
   53 Bend                    10    15    12                90.00000    0.00000
   54 Bend                    10    16    11                90.00000    0.00000
   55 Bend                    11    13    12                90.00000    0.00000
   56 Bend                    11    14    12                90.00000    0.00000
   57 Bend                    13     9    15                90.00000    0.00000
   58 Bend                    13     9    16                90.00000    0.00000
   59 Bend                    13    11    14                90.00000    0.00000
   60 Bend                    13    11    16                90.00000    0.00000
   61 Bend                    13    12    14                90.00000    0.00000
   62 Bend                    13    12    15                90.00000    0.00000
   63 Bend                    14    10    15                90.00000    0.00000
   64 Bend                    14    10    16                90.00000    0.00000
   65 Bend                    14    11    16                90.00000    0.00000
   66 Bend                    14    12    15                90.00000    0.00000
   67 Bend                    15     9    16                90.00000    0.00000
   68 Bend                    15    10    16                90.00000    0.00000
   69 Torsion                  1     9    13     5           0.00000    0.00000
   70 Torsion                  1     9    13    11        -135.00000    0.00000
   71 Torsion                  1     9    13    12         135.00000   -0.00000
   72 Torsion                  1     9    15     7           0.00000    0.00000
   73 Torsion                  1     9    15    10         135.00000   -0.00000
   74 Torsion                  1     9    15    12        -135.00000    0.00000
   75 Torsion                  1     9    16     8           0.00000    0.00000
   76 Torsion                  1     9    16    10        -135.00000    0.00000
   77 Torsion                  1     9    16    11         135.00000   -0.00000
   78 Torsion                  2    10    14     6           0.00000    0.00000
   79 Torsion                  2    10    14    11         135.00000   -0.00000
   80 Torsion                  2    10    14    12        -135.00000    0.00000
   81 Torsion                  2    10    15     7           0.00000    0.00000
   82 Torsion                  2    10    15     9        -135.00000    0.00000
   83 Torsion                  2    10    15    12         135.00000   -0.00000
   84 Torsion                  2    10    16     8           0.00000    0.00000
   85 Torsion                  2    10    16     9         135.00000   -0.00000
   86 Torsion                  2    10    16    11        -135.00000    0.00000
   87 Torsion                  3    11    13     5           0.00000    0.00000
   88 Torsion                  3    11    13     9         135.00000   -0.00000
   89 Torsion                  3    11    13    12        -135.00000    0.00000
   90 Torsion                  3    11    14     6           0.00000    0.00000
   91 Torsion                  3    11    14    10        -135.00000    0.00000
   92 Torsion                  3    11    14    12         135.00000   -0.00000
   93 Torsion                  3    11    16     8           0.00000    0.00000
   94 Torsion                  3    11    16     9        -135.00000    0.00000
   95 Torsion                  3    11    16    10         135.00000   -0.00000
   96 Torsion                  4    12    13     5           0.00000    0.00000
   97 Torsion                  4    12    13     9        -135.00000    0.00000
   98 Torsion                  4    12    13    11         135.00000   -0.00000
   99 Torsion                  4    12    14     6           0.00000    0.00000
  100 Torsion                  4    12    14    10         135.00000   -0.00000
  101 Torsion                  4    12    14    11        -135.00000    0.00000
  102 Torsion                  4    12    15     7           0.00000    0.00000
  103 Torsion                  4    12    15     9         135.00000   -0.00000
  104 Torsion                  4    12    15    10        -135.00000    0.00000
  105 Torsion                  5    13     9    15        -135.00000    0.00000
  106 Torsion                  5    13     9    16         135.00000   -0.00000
  107 Torsion                  5    13    11    14         135.00000   -0.00000
  108 Torsion                  5    13    11    16        -135.00000    0.00000
  109 Torsion                  5    13    12    14        -135.00000    0.00000
  110 Torsion                  5    13    12    15         135.00000   -0.00000
  111 Torsion                  6    14    10    15         135.00000   -0.00000
  112 Torsion                  6    14    10    16        -135.00000    0.00000
  113 Torsion                  6    14    11    13        -135.00000    0.00000
  114 Torsion                  6    14    11    16         135.00000   -0.00000
  115 Torsion                  6    14    12    13         135.00000   -0.00000
  116 Torsion                  6    14    12    15        -135.00000    0.00000
  117 Torsion                  7    15     9    13         135.00000   -0.00000
  118 Torsion                  7    15     9    16        -135.00000    0.00000
  119 Torsion                  7    15    10    14        -135.00000    0.00000
  120 Torsion                  7    15    10    16         135.00000   -0.00000
  121 Torsion                  7    15    12    13        -135.00000    0.00000
  122 Torsion                  7    15    12    14         135.00000   -0.00000
  123 Torsion                  8    16     9    13        -135.00000    0.00000
  124 Torsion                  8    16     9    15         135.00000   -0.00000
  125 Torsion                  8    16    10    14         135.00000   -0.00000
  126 Torsion                  8    16    10    15        -135.00000    0.00000
  127 Torsion                  8    16    11    13         135.00000   -0.00000
  128 Torsion                  8    16    11    14        -135.00000    0.00000
  129 Torsion                  9    13    11    14         -90.00000    0.00000
  130 Torsion                  9    13    11    16           0.00000    0.00000
  131 Torsion                  9    13    12    14          90.00000    0.00000
  132 Torsion                  9    13    12    15           0.00000    0.00000
  133 Torsion                  9    15    10    14          90.00000    0.00000
  134 Torsion                  9    15    10    16           0.00000    0.00000
  135 Torsion                  9    15    12    13           0.00000    0.00000
  136 Torsion                  9    15    12    14         -90.00000    0.00000
  137 Torsion                  9    16    10    14         -90.00000    0.00000
  138 Torsion                  9    16    10    15           0.00000    0.00000
  139 Torsion                  9    16    11    13           0.00000    0.00000
  140 Torsion                  9    16    11    14          90.00000    0.00000
  141 Torsion                 10    14    11    13          90.00000    0.00000
  142 Torsion                 10    14    11    16           0.00000    0.00000
  143 Torsion                 10    14    12    13         -90.00000    0.00000
  144 Torsion                 10    14    12    15           0.00000    0.00000
  145 Torsion                 10    15     9    13         -90.00000    0.00000
  146 Torsion                 10    15     9    16           0.00000    0.00000
  147 Torsion                 10    15    12    13          90.00000    0.00000
  148 Torsion                 10    15    12    14           0.00000    0.00000
  149 Torsion                 10    16     9    13          90.00000    0.00000
  150 Torsion                 10    16     9    15           0.00000    0.00000
  151 Torsion                 10    16    11    13         -90.00000    0.00000
  152 Torsion                 10    16    11    14           0.00000    0.00000
  153 Torsion                 11    13     9    15          90.00000    0.00000
  154 Torsion                 11    13     9    16           0.00000    0.00000
  155 Torsion                 11    13    12    14           0.00000    0.00000
  156 Torsion                 11    13    12    15         -90.00000    0.00000
  157 Torsion                 11    14    10    15         -90.00000    0.00000
  158 Torsion                 11    14    10    16           0.00000    0.00000
  159 Torsion                 11    14    12    13           0.00000    0.00000
  160 Torsion                 11    14    12    15          90.00000    0.00000
  161 Torsion                 11    16     9    13           0.00000    0.00000
  162 Torsion                 11    16     9    15         -90.00000    0.00000
  163 Torsion                 11    16    10    14           0.00000    0.00000
  164 Torsion                 11    16    10    15          90.00000    0.00000
  165 Torsion                 12    13     9    15           0.00000    0.00000
  166 Torsion                 12    13     9    16         -90.00000    0.00000
  167 Torsion                 12    13    11    14           0.00000    0.00000
  168 Torsion                 12    13    11    16          90.00000    0.00000
  169 Torsion                 12    14    10    15           0.00000    0.00000
  170 Torsion                 12    14    10    16          90.00000    0.00000
  171 Torsion                 12    14    11    13           0.00000    0.00000
  172 Torsion                 12    14    11    16         -90.00000    0.00000
  173 Torsion                 12    15     9    13           0.00000    0.00000
  174 Torsion                 12    15     9    16          90.00000    0.00000
  175 Torsion                 12    15    10    14           0.00000    0.00000
  176 Torsion                 12    15    10    16         -90.00000    0.00000

 ==============================================================================
                                internuclear distances
 ------------------------------------------------------------------------------
       center one      |      center two      | atomic units |  angstroms
 ------------------------------------------------------------------------------
    9 C                |   1 H                |     2.04931  |     1.08445
   10 C                |   2 H                |     2.04931  |     1.08445
   11 C                |   3 H                |     2.04931  |     1.08445
   12 C                |   4 H                |     2.04931  |     1.08445
   13 C                |   5 H                |     2.04931  |     1.08445
   13 C                |   9 C                |     2.95211  |     1.56219
   13 C                |  11 C                |     2.95211  |     1.56219
   13 C                |  12 C                |     2.95211  |     1.56219
   14 C                |   6 H                |     2.04931  |     1.08445
   14 C                |  10 C                |     2.95211  |     1.56219
   14 C                |  11 C                |     2.95211  |     1.56219
   14 C                |  12 C                |     2.95211  |     1.56219
   15 C                |   7 H                |     2.04931  |     1.08445
   15 C                |   9 C                |     2.95211  |     1.56219
   15 C                |  10 C                |     2.95211  |     1.56219
   15 C                |  12 C                |     2.95211  |     1.56219
   16 C                |   8 H                |     2.04931  |     1.08445
   16 C                |   9 C                |     2.95211  |     1.56219
   16 C                |  10 C                |     2.95211  |     1.56219
   16 C                |  11 C                |     2.95211  |     1.56219
 ------------------------------------------------------------------------------
                         number of included internuclear distances:         20
 ==============================================================================



 ==============================================================================
                                 internuclear angles
 ------------------------------------------------------------------------------
        center 1       |       center 2       |       center 3       |  degrees
 ------------------------------------------------------------------------------
    1 H                |   9 C                |  13 C                |   125.26
    1 H                |   9 C                |  15 C                |   125.26
    1 H                |   9 C                |  16 C                |   125.26
   13 C                |   9 C                |  15 C                |    90.00
   13 C                |   9 C                |  16 C                |    90.00
   15 C                |   9 C                |  16 C                |    90.00
    2 H                |  10 C                |  14 C                |   125.26
    2 H                |  10 C                |  15 C                |   125.26
    2 H                |  10 C                |  16 C                |   125.26
   14 C                |  10 C                |  15 C                |    90.00
   14 C                |  10 C                |  16 C                |    90.00
   15 C                |  10 C                |  16 C                |    90.00
    3 H                |  11 C                |  13 C                |   125.26
    3 H                |  11 C                |  14 C                |   125.26
    3 H                |  11 C                |  16 C                |   125.26
   13 C                |  11 C                |  14 C                |    90.00
   13 C                |  11 C                |  16 C                |    90.00
   14 C                |  11 C                |  16 C                |    90.00
    4 H                |  12 C                |  13 C                |   125.26
    4 H                |  12 C                |  14 C                |   125.26
    4 H                |  12 C                |  15 C                |   125.26
   13 C                |  12 C                |  14 C                |    90.00
   13 C                |  12 C                |  15 C                |    90.00
   14 C                |  12 C                |  15 C                |    90.00
    5 H                |  13 C                |   9 C                |   125.26
    5 H                |  13 C                |  11 C                |   125.26
    5 H                |  13 C                |  12 C                |   125.26
    9 C                |  13 C                |  11 C                |    90.00
    9 C                |  13 C                |  12 C                |    90.00
   11 C                |  13 C                |  12 C                |    90.00
    6 H                |  14 C                |  10 C                |   125.26
    6 H                |  14 C                |  11 C                |   125.26
    6 H                |  14 C                |  12 C                |   125.26
   10 C                |  14 C                |  11 C                |    90.00
   10 C                |  14 C                |  12 C                |    90.00
   11 C                |  14 C                |  12 C                |    90.00
    7 H                |  15 C                |   9 C                |   125.26
    7 H                |  15 C                |  10 C                |   125.26
    7 H                |  15 C                |  12 C                |   125.26
    9 C                |  15 C                |  10 C                |    90.00
    9 C                |  15 C                |  12 C                |    90.00
   10 C                |  15 C                |  12 C                |    90.00
    8 H                |  16 C                |   9 C                |   125.26
    8 H                |  16 C                |  10 C                |   125.26
    8 H                |  16 C                |  11 C                |   125.26
    9 C                |  16 C                |  10 C                |    90.00
    9 C                |  16 C                |  11 C                |    90.00
   10 C                |  16 C                |  11 C                |    90.00
 ------------------------------------------------------------------------------
                            number of included internuclear angles:         48
 ==============================================================================




 Task  times  cpu:     2727.3s     wall:     2381.8s
 Summary of allocated global arrays
-----------------------------------
  No active global arrays



                         GA Statistics for process    0
                         ------------------------------

       create   destroy   get      put      acc     scatter   gather  read&inc
calls: 2277     2277     2.26e+07 2.27e+06 1.23e+07    0        0     7.39e+04 
number of processes/call 1.00e+00 1.00e+00 1.00e+00 0.00e+00 0.00e+00
bytes total:             2.41e+10 3.57e+10 7.83e+09 0.00e+00 0.00e+00 5.91e+05
bytes remote:            0.00e+00 0.00e+00 0.00e+00 0.00e+00 0.00e+00 0.00e+00
Max memory consumed for GA by this process: 209701896 bytes
MA_summarize_allocated_blocks: starting scan ...
MA_summarize_allocated_blocks: scan completed: 0 heap blocks, 0 stack blocks
MA usage statistics:

	allocation statistics:
					      heap	     stack
					      ----	     -----
	current number of blocks	         0	         0
	maximum number of blocks	        25	        36
	current total bytes		         0	         0
	maximum total bytes		    234944	 108743704
	maximum total K-bytes		       235	    108744
	maximum total M-bytes		         1	       109


                                NWChem Input Module
                                -------------------





                                     CITATION
                                     --------
                Please cite the following reference when publishing
                           results obtained with NWChem:

                 M. Valiev, E.J. Bylaska, N. Govind, K. Kowalski,
              T.P. Straatsma, H.J.J. van Dam, D. Wang, J. Nieplocha,
                        E. Apra, T.L. Windus, W.A. de Jong
                 "NWChem: a comprehensive and scalable open-source
                  solution for large scale molecular simulations"
                      Comput. Phys. Commun. 181, 1477 (2010)
                           doi:10.1016/j.cpc.2010.04.018

                                      AUTHORS
                                      -------
          E. Apra, E. J. Bylaska, W. A. de Jong, N. Govind, K. Kowalski,
       T. P. Straatsma, M. Valiev, H. J. J. van Dam, D. Wang, T. L. Windus,
        J. Hammond, J. Autschbach, K. Bhaskaran-Nair, J. Brabec, K. Lopata,
       S. A. Fischer, S. Krishnamoorthy, W. Ma, M. Klemm, O. Villa, Y. Chen,
    V. Anisimov, F. Aquino, S. Hirata, M. T. Hackler, T. Risthaus, M. Malagoli,
       A. Marenich, A. Otero-de-la-Roza, J. Mullin, P. Nichols, R. Peverati,
     J. Pittner, Y. Zhao, P.-D. Fan, A. Fonari, M. Williamson, R. J. Harrison,
       J. R. Rehr, M. Dupuis, D. Silverstein, D. M. A. Smith, J. Nieplocha,
        V. Tipparaju, M. Krishnan, B. E. Van Kuiken, A. Vazquez-Mayagoitia,
        L. Jensen, M. Swart, Q. Wu, T. Van Voorhis, A. A. Auer, M. Nooijen,
      L. D. Crosby, E. Brown, G. Cisneros, G. I. Fann, H. Fruchtl, J. Garza,
        K. Hirao, R. A. Kendall, J. A. Nichols, K. Tsemekhman, K. Wolinski,
     J. Anchell, D. E. Bernholdt, P. Borowski, T. Clark, D. Clerc, H. Dachsel,
   M. J. O. Deegan, K. Dyall, D. Elwood, E. Glendening, M. Gutowski, A. C. Hess,
         J. Jaffe, B. G. Johnson, J. Ju, R. Kobayashi, R. Kutteh, Z. Lin,
   R. Littlefield, X. Long, B. Meng, T. Nakajima, S. Niu, L. Pollack, M. Rosing,
   K. Glaesemann, G. Sandrone, M. Stave, H. Taylor, G. Thomas, J. H. van Lenthe,
                               A. T. Wong, Z. Zhang.

 Total times  cpu:     2727.4s     wall:     2381.8s
