 argument  1 = cubane.nw
                                         
                                         


              Northwest Computational Chemistry Package (NWChem) 6.6
              ------------------------------------------------------


                    Environmental Molecular Sciences Laboratory
                       Pacific Northwest National Laboratory
                                Richland, WA 99352

                              Copyright (c) 1994-2015
                       Pacific Northwest National Laboratory
                            Battelle Memorial Institute

             NWChem is an open-source computational chemistry package
                        distributed under the terms of the
                      Educational Community License (ECL) 2.0
             A copy of the license is included with this distribution
                              in the LICENSE.TXT file

                                  ACKNOWLEDGMENT
                                  --------------

            This software and its documentation were developed at the
            EMSL at Pacific Northwest National Laboratory, a multiprogram
            national laboratory, operated for the U.S. Department of Energy
            by Battelle under Contract Number DE-AC05-76RL01830. Support
            for this work was provided by the Department of Energy Office
            of Biological and Environmental Research, Office of Basic
            Energy Sciences, and the Office of Advanced Scientific Computing.


           Job information
           ---------------

    hostname        = konkov-work
    program         = nwchem
    date            = Mon Mar  6 11:24:16 2017

    compiled        = Mon_Feb_15_08:24:17_2016
    source          = /build/nwchem-MF0R1k/nwchem-6.6+r27746
    nwchem branch   = 6.6
    nwchem revision = 27746
    ga revision     = 10594
    input           = cubane.nw
    prefix          = cubane.
    data base       = ./cubane.db
    status          = startup
    nproc           =        1
    time left       =     -1s



           Memory information
           ------------------

    heap     =   13107194 doubles =    100.0 Mbytes
    stack    =   13107199 doubles =    100.0 Mbytes
    global   =   26214400 doubles =    200.0 Mbytes (distinct from heap & stack)
    total    =   52428793 doubles =    400.0 Mbytes
    verify   = yes
    hardfail = no 


           Directory information
           ---------------------

  0 permanent = .
  0 scratch   = .




                                NWChem Input Module
                                -------------------


                   cubane MP2/aug-cc-pVTZ geometry optimization
                   --------------------------------------------

 Scaling coordinates for geometry "geometry" by  1.889725989
 (inverse scale =  0.529177249)

 Turning off AUTOSYM since
 SYMMETRY directive was detected!


          ------
          auto-z
          ------


                             Geometry "geometry" -> ""
                             -------------------------

 Output coordinates in angstroms (scale by  1.889725989 to convert to a.u.)

  No.       Tag          Charge          X              Y              Z
 ---- ---------------- ---------- -------------- -------------- --------------
    1 H                    1.0000     1.41400000     1.41400000     1.41400000
    2 H                    1.0000    -1.41400000    -1.41400000     1.41400000
    3 H                    1.0000    -1.41400000     1.41400000    -1.41400000
    4 H                    1.0000     1.41400000    -1.41400000    -1.41400000
    5 H                    1.0000     1.41400000     1.41400000    -1.41400000
    6 H                    1.0000    -1.41400000    -1.41400000    -1.41400000
    7 H                    1.0000     1.41400000    -1.41400000     1.41400000
    8 H                    1.0000    -1.41400000     1.41400000     1.41400000
    9 C                    6.0000     0.78980000     0.78980000     0.78980000
   10 C                    6.0000    -0.78980000    -0.78980000     0.78980000
   11 C                    6.0000    -0.78980000     0.78980000    -0.78980000
   12 C                    6.0000     0.78980000    -0.78980000    -0.78980000
   13 C                    6.0000     0.78980000     0.78980000    -0.78980000
   14 C                    6.0000    -0.78980000    -0.78980000    -0.78980000
   15 C                    6.0000     0.78980000    -0.78980000     0.78980000
   16 C                    6.0000    -0.78980000     0.78980000     0.78980000

      Atomic Mass 
      ----------- 

      H                  1.007825
      C                 12.000000


 Effective nuclear repulsion energy (a.u.)     365.3953687263

            Nuclear Dipole moment (a.u.) 
            ----------------------------
        X                 Y               Z
 ---------------- ---------------- ----------------
     0.0000000000     0.0000000000     0.0000000000

      Symmetry information
      --------------------

 Group name              Oh       
 Group number             44
 Group order              48
 No. of unique centers     2

      Symmetry unique atoms

     1    9



                                Z-matrix (autoz)
                                -------- 

 Units are Angstrom for bonds and degrees for angles

      Type          Name      I     J     K     L     M      Value
      ----------- --------  ----- ----- ----- ----- ----- ----------
    1 Stretch                  1     9                       1.08115
    2 Stretch                  2    10                       1.08115
    3 Stretch                  3    11                       1.08115
    4 Stretch                  4    12                       1.08115
    5 Stretch                  5    13                       1.08115
    6 Stretch                  6    14                       1.08115
    7 Stretch                  7    15                       1.08115
    8 Stretch                  8    16                       1.08115
    9 Stretch                  9    13                       1.57960
   10 Stretch                  9    15                       1.57960
   11 Stretch                  9    16                       1.57960
   12 Stretch                 10    14                       1.57960
   13 Stretch                 10    15                       1.57960
   14 Stretch                 10    16                       1.57960
   15 Stretch                 11    13                       1.57960
   16 Stretch                 11    14                       1.57960
   17 Stretch                 11    16                       1.57960
   18 Stretch                 12    13                       1.57960
   19 Stretch                 12    14                       1.57960
   20 Stretch                 12    15                       1.57960
   21 Bend                     1     9    13               125.26439
   22 Bend                     1     9    15               125.26439
   23 Bend                     1     9    16               125.26439
   24 Bend                     2    10    14               125.26439
   25 Bend                     2    10    15               125.26439
   26 Bend                     2    10    16               125.26439
   27 Bend                     3    11    13               125.26439
   28 Bend                     3    11    14               125.26439
   29 Bend                     3    11    16               125.26439
   30 Bend                     4    12    13               125.26439
   31 Bend                     4    12    14               125.26439
   32 Bend                     4    12    15               125.26439
   33 Bend                     5    13     9               125.26439
   34 Bend                     5    13    11               125.26439
   35 Bend                     5    13    12               125.26439
   36 Bend                     6    14    10               125.26439
   37 Bend                     6    14    11               125.26439
   38 Bend                     6    14    12               125.26439
   39 Bend                     7    15     9               125.26439
   40 Bend                     7    15    10               125.26439
   41 Bend                     7    15    12               125.26439
   42 Bend                     8    16     9               125.26439
   43 Bend                     8    16    10               125.26439
   44 Bend                     8    16    11               125.26439
   45 Bend                     9    13    11                90.00000
   46 Bend                     9    13    12                90.00000
   47 Bend                     9    15    10                90.00000
   48 Bend                     9    15    12                90.00000
   49 Bend                     9    16    10                90.00000
   50 Bend                     9    16    11                90.00000
   51 Bend                    10    14    11                90.00000
   52 Bend                    10    14    12                90.00000
   53 Bend                    10    15    12                90.00000
   54 Bend                    10    16    11                90.00000
   55 Bend                    11    13    12                90.00000
   56 Bend                    11    14    12                90.00000
   57 Bend                    13     9    15                90.00000
   58 Bend                    13     9    16                90.00000
   59 Bend                    13    11    14                90.00000
   60 Bend                    13    11    16                90.00000
   61 Bend                    13    12    14                90.00000
   62 Bend                    13    12    15                90.00000
   63 Bend                    14    10    15                90.00000
   64 Bend                    14    10    16                90.00000
   65 Bend                    14    11    16                90.00000
   66 Bend                    14    12    15                90.00000
   67 Bend                    15     9    16                90.00000
   68 Bend                    15    10    16                90.00000
   69 Torsion                  1     9    13     5           0.00000
   70 Torsion                  1     9    13    11        -135.00000
   71 Torsion                  1     9    13    12         135.00000
   72 Torsion                  1     9    15     7           0.00000
   73 Torsion                  1     9    15    10         135.00000
   74 Torsion                  1     9    15    12        -135.00000
   75 Torsion                  1     9    16     8           0.00000
   76 Torsion                  1     9    16    10        -135.00000
   77 Torsion                  1     9    16    11         135.00000
   78 Torsion                  2    10    14     6           0.00000
   79 Torsion                  2    10    14    11         135.00000
   80 Torsion                  2    10    14    12        -135.00000
   81 Torsion                  2    10    15     7           0.00000
   82 Torsion                  2    10    15     9        -135.00000
   83 Torsion                  2    10    15    12         135.00000
   84 Torsion                  2    10    16     8           0.00000
   85 Torsion                  2    10    16     9         135.00000
   86 Torsion                  2    10    16    11        -135.00000
   87 Torsion                  3    11    13     5           0.00000
   88 Torsion                  3    11    13     9         135.00000
   89 Torsion                  3    11    13    12        -135.00000
   90 Torsion                  3    11    14     6           0.00000
   91 Torsion                  3    11    14    10        -135.00000
   92 Torsion                  3    11    14    12         135.00000
   93 Torsion                  3    11    16     8           0.00000
   94 Torsion                  3    11    16     9        -135.00000
   95 Torsion                  3    11    16    10         135.00000
   96 Torsion                  4    12    13     5           0.00000
   97 Torsion                  4    12    13     9        -135.00000
   98 Torsion                  4    12    13    11         135.00000
   99 Torsion                  4    12    14     6           0.00000
  100 Torsion                  4    12    14    10         135.00000
  101 Torsion                  4    12    14    11        -135.00000
  102 Torsion                  4    12    15     7           0.00000
  103 Torsion                  4    12    15     9         135.00000
  104 Torsion                  4    12    15    10        -135.00000
  105 Torsion                  5    13     9    15        -135.00000
  106 Torsion                  5    13     9    16         135.00000
  107 Torsion                  5    13    11    14         135.00000
  108 Torsion                  5    13    11    16        -135.00000
  109 Torsion                  5    13    12    14        -135.00000
  110 Torsion                  5    13    12    15         135.00000
  111 Torsion                  6    14    10    15         135.00000
  112 Torsion                  6    14    10    16        -135.00000
  113 Torsion                  6    14    11    13        -135.00000
  114 Torsion                  6    14    11    16         135.00000
  115 Torsion                  6    14    12    13         135.00000
  116 Torsion                  6    14    12    15        -135.00000
  117 Torsion                  7    15     9    13         135.00000
  118 Torsion                  7    15     9    16        -135.00000
  119 Torsion                  7    15    10    14        -135.00000
  120 Torsion                  7    15    10    16         135.00000
  121 Torsion                  7    15    12    13        -135.00000
  122 Torsion                  7    15    12    14         135.00000
  123 Torsion                  8    16     9    13        -135.00000
  124 Torsion                  8    16     9    15         135.00000
  125 Torsion                  8    16    10    14         135.00000
  126 Torsion                  8    16    10    15        -135.00000
  127 Torsion                  8    16    11    13         135.00000
  128 Torsion                  8    16    11    14        -135.00000
  129 Torsion                  9    13    11    14         -90.00000
  130 Torsion                  9    13    11    16           0.00000
  131 Torsion                  9    13    12    14          90.00000
  132 Torsion                  9    13    12    15           0.00000
  133 Torsion                  9    15    10    14          90.00000
  134 Torsion                  9    15    10    16           0.00000
  135 Torsion                  9    15    12    13           0.00000
  136 Torsion                  9    15    12    14         -90.00000
  137 Torsion                  9    16    10    14         -90.00000
  138 Torsion                  9    16    10    15           0.00000
  139 Torsion                  9    16    11    13           0.00000
  140 Torsion                  9    16    11    14          90.00000
  141 Torsion                 10    14    11    13          90.00000
  142 Torsion                 10    14    11    16           0.00000
  143 Torsion                 10    14    12    13         -90.00000
  144 Torsion                 10    14    12    15           0.00000
  145 Torsion                 10    15     9    13         -90.00000
  146 Torsion                 10    15     9    16           0.00000
  147 Torsion                 10    15    12    13          90.00000
  148 Torsion                 10    15    12    14           0.00000
  149 Torsion                 10    16     9    13          90.00000
  150 Torsion                 10    16     9    15           0.00000
  151 Torsion                 10    16    11    13         -90.00000
  152 Torsion                 10    16    11    14           0.00000
  153 Torsion                 11    13     9    15          90.00000
  154 Torsion                 11    13     9    16           0.00000
  155 Torsion                 11    13    12    14           0.00000
  156 Torsion                 11    13    12    15         -90.00000
  157 Torsion                 11    14    10    15         -90.00000
  158 Torsion                 11    14    10    16           0.00000
  159 Torsion                 11    14    12    13           0.00000
  160 Torsion                 11    14    12    15          90.00000
  161 Torsion                 11    16     9    13           0.00000
  162 Torsion                 11    16     9    15         -90.00000
  163 Torsion                 11    16    10    14           0.00000
  164 Torsion                 11    16    10    15          90.00000
  165 Torsion                 12    13     9    15           0.00000
  166 Torsion                 12    13     9    16         -90.00000
  167 Torsion                 12    13    11    14           0.00000
  168 Torsion                 12    13    11    16          90.00000
  169 Torsion                 12    14    10    15           0.00000
  170 Torsion                 12    14    10    16          90.00000
  171 Torsion                 12    14    11    13           0.00000
  172 Torsion                 12    14    11    16         -90.00000
  173 Torsion                 12    15     9    13           0.00000
  174 Torsion                 12    15     9    16          90.00000
  175 Torsion                 12    15    10    14           0.00000
  176 Torsion                 12    15    10    16         -90.00000


            XYZ format geometry
            -------------------
    16
 geometry
 H                     1.41400000     1.41400000     1.41400000
 H                    -1.41400000    -1.41400000     1.41400000
 H                    -1.41400000     1.41400000    -1.41400000
 H                     1.41400000    -1.41400000    -1.41400000
 H                     1.41400000     1.41400000    -1.41400000
 H                    -1.41400000    -1.41400000    -1.41400000
 H                     1.41400000    -1.41400000     1.41400000
 H                    -1.41400000     1.41400000     1.41400000
 C                     0.78980000     0.78980000     0.78980000
 C                    -0.78980000    -0.78980000     0.78980000
 C                    -0.78980000     0.78980000    -0.78980000
 C                     0.78980000    -0.78980000    -0.78980000
 C                     0.78980000     0.78980000    -0.78980000
 C                    -0.78980000    -0.78980000    -0.78980000
 C                     0.78980000    -0.78980000     0.78980000
 C                    -0.78980000     0.78980000     0.78980000

 ==============================================================================
                                internuclear distances
 ------------------------------------------------------------------------------
       center one      |      center two      | atomic units |  angstroms
 ------------------------------------------------------------------------------
    9 C                |   1 H                |     2.04307  |     1.08115
   10 C                |   2 H                |     2.04307  |     1.08115
   11 C                |   3 H                |     2.04307  |     1.08115
   12 C                |   4 H                |     2.04307  |     1.08115
   13 C                |   5 H                |     2.04307  |     1.08115
   13 C                |   9 C                |     2.98501  |     1.57960
   13 C                |  11 C                |     2.98501  |     1.57960
   13 C                |  12 C                |     2.98501  |     1.57960
   14 C                |   6 H                |     2.04307  |     1.08115
   14 C                |  10 C                |     2.98501  |     1.57960
   14 C                |  11 C                |     2.98501  |     1.57960
   14 C                |  12 C                |     2.98501  |     1.57960
   15 C                |   7 H                |     2.04307  |     1.08115
   15 C                |   9 C                |     2.98501  |     1.57960
   15 C                |  10 C                |     2.98501  |     1.57960
   15 C                |  12 C                |     2.98501  |     1.57960
   16 C                |   8 H                |     2.04307  |     1.08115
   16 C                |   9 C                |     2.98501  |     1.57960
   16 C                |  10 C                |     2.98501  |     1.57960
   16 C                |  11 C                |     2.98501  |     1.57960
 ------------------------------------------------------------------------------
                         number of included internuclear distances:         20
 ==============================================================================



 ==============================================================================
                                 internuclear angles
 ------------------------------------------------------------------------------
        center 1       |       center 2       |       center 3       |  degrees
 ------------------------------------------------------------------------------
    1 H                |   9 C                |  13 C                |   125.26
    1 H                |   9 C                |  15 C                |   125.26
    1 H                |   9 C                |  16 C                |   125.26
   13 C                |   9 C                |  15 C                |    90.00
   13 C                |   9 C                |  16 C                |    90.00
   15 C                |   9 C                |  16 C                |    90.00
    2 H                |  10 C                |  14 C                |   125.26
    2 H                |  10 C                |  15 C                |   125.26
    2 H                |  10 C                |  16 C                |   125.26
   14 C                |  10 C                |  15 C                |    90.00
   14 C                |  10 C                |  16 C                |    90.00
   15 C                |  10 C                |  16 C                |    90.00
    3 H                |  11 C                |  13 C                |   125.26
    3 H                |  11 C                |  14 C                |   125.26
    3 H                |  11 C                |  16 C                |   125.26
   13 C                |  11 C                |  14 C                |    90.00
   13 C                |  11 C                |  16 C                |    90.00
   14 C                |  11 C                |  16 C                |    90.00
    4 H                |  12 C                |  13 C                |   125.26
    4 H                |  12 C                |  14 C                |   125.26
    4 H                |  12 C                |  15 C                |   125.26
   13 C                |  12 C                |  14 C                |    90.00
   13 C                |  12 C                |  15 C                |    90.00
   14 C                |  12 C                |  15 C                |    90.00
    5 H                |  13 C                |   9 C                |   125.26
    5 H                |  13 C                |  11 C                |   125.26
    5 H                |  13 C                |  12 C                |   125.26
    9 C                |  13 C                |  11 C                |    90.00
    9 C                |  13 C                |  12 C                |    90.00
   11 C                |  13 C                |  12 C                |    90.00
    6 H                |  14 C                |  10 C                |   125.26
    6 H                |  14 C                |  11 C                |   125.26
    6 H                |  14 C                |  12 C                |   125.26
   10 C                |  14 C                |  11 C                |    90.00
   10 C                |  14 C                |  12 C                |    90.00
   11 C                |  14 C                |  12 C                |    90.00
    7 H                |  15 C                |   9 C                |   125.26
    7 H                |  15 C                |  10 C                |   125.26
    7 H                |  15 C                |  12 C                |   125.26
    9 C                |  15 C                |  10 C                |    90.00
    9 C                |  15 C                |  12 C                |    90.00
   10 C                |  15 C                |  12 C                |    90.00
    8 H                |  16 C                |   9 C                |   125.26
    8 H                |  16 C                |  10 C                |   125.26
    8 H                |  16 C                |  11 C                |   125.26
    9 C                |  16 C                |  10 C                |    90.00
    9 C                |  16 C                |  11 C                |    90.00
   10 C                |  16 C                |  11 C                |    90.00
 ------------------------------------------------------------------------------
                            number of included internuclear angles:         48
 ==============================================================================



  library name resolved from: environment
  library file name is: </home/vladimir/bin/nwchem-6.6/src/basis/libraries/>
  
                      Basis "ao basis" -> "" (spherical)
                      -----
  H (Hydrogen)
  ------------
            Exponent  Coefficients 
       -------------- ---------------------------------------------------------
  1 S  3.38700000E+01  0.006068
  1 S  5.09500000E+00  0.045308
  1 S  1.15900000E+00  0.202822

  2 S  3.25800000E-01  1.000000

  3 S  1.02700000E-01  1.000000

  4 S  2.52600000E-02  1.000000

  5 P  1.40700000E+00  1.000000

  6 P  3.88000000E-01  1.000000

  7 P  1.02000000E-01  1.000000

  8 D  1.05700000E+00  1.000000

  9 D  2.47000000E-01  1.000000

  C (Carbon)
  ----------
            Exponent  Coefficients 
       -------------- ---------------------------------------------------------
  1 S  8.23600000E+03  0.000531
  1 S  1.23500000E+03  0.004108
  1 S  2.80800000E+02  0.021087
  1 S  7.92700000E+01  0.081853
  1 S  2.55900000E+01  0.234817
  1 S  8.99700000E+00  0.434401
  1 S  3.31900000E+00  0.346129
  1 S  3.64300000E-01 -0.008983

  2 S  8.23600000E+03 -0.000113
  2 S  1.23500000E+03 -0.000878
  2 S  2.80800000E+02 -0.004540
  2 S  7.92700000E+01 -0.018133
  2 S  2.55900000E+01 -0.055760
  2 S  8.99700000E+00 -0.126895
  2 S  3.31900000E+00 -0.170352
  2 S  3.64300000E-01  0.598684

  3 S  9.05900000E-01  1.000000

  4 S  1.28500000E-01  1.000000

  5 S  4.40200000E-02  1.000000

  6 P  1.87100000E+01  0.014031
  6 P  4.13300000E+00  0.086866
  6 P  1.20000000E+00  0.290216

  7 P  3.82700000E-01  1.000000

  8 P  1.20900000E-01  1.000000

  9 P  3.56900000E-02  1.000000

 10 D  1.09700000E+00  1.000000

 11 D  3.18000000E-01  1.000000

 12 D  1.00000000E-01  1.000000

 13 F  7.61000000E-01  1.000000

 14 F  2.68000000E-01  1.000000



 Summary of "ao basis" -> "" (spherical)
 ------------------------------------------------------------------------------
       Tag                 Description            Shells   Functions and Types
 ---------------- ------------------------------  ------  ---------------------
 H                        aug-cc-pVTZ                9       23   4s3p2d
 C                        aug-cc-pVTZ               14       46   5s4p3d2f




                           NWChem Geometry Optimization
                           ----------------------------




                   cubane MP2/aug-cc-pVTZ geometry optimization


 maximum gradient threshold         (gmax) =   0.000450
 rms gradient threshold             (grms) =   0.000300
 maximum cartesian step threshold   (xmax) =   0.001800
 rms cartesian step threshold       (xrms) =   0.001200
 fixed trust radius                (trust) =   0.300000
 maximum step size to saddle      (sadstp) =   0.100000
 energy precision                  (eprec) =   1.0D-07
 maximum number of steps          (nptopt) =   20
 initial hessian option           (inhess) =    0
 line search option               (linopt) =    1
 hessian update option            (modupd) =    1
 saddle point option              (modsad) =    0
 initial eigen-mode to follow     (moddir) =    0
 initial variable to follow       (vardir) =    0
 follow first negative mode     (firstneg) =    T
 apply conjugacy                    (opcg) =    F
 source of zmatrix                         =   autoz   


          -------------------
          Energy Minimization
          -------------------


 Names of Z-matrix variables 
    1              2              3              4              5         
    6              7              8              9             10         
   11             12             13             14             15         
   16             17             18             19             20         
   21             22             23             24             25         
   26             27             28             29             30         
   31             32             33             34             35         
   36             37             38             39             40         
   41             42             43             44             45         
   46             47             48             49             50         
   51             52             53             54             55         
   56             57             58             59             60         
   61             62             63             64             65         
   66             67             68             69             70         
   71             72             73             74             75         
   76             77             78             79             80         
   81             82             83             84             85         
   86             87             88             89             90         
   91             92             93             94             95         
   96             97             98             99            100         
  101            102            103            104            105         
  106            107            108            109            110         
  111            112            113            114            115         
  116            117            118            119            120         
  121            122            123            124            125         
  126            127            128            129            130         
  131            132            133            134            135         
  136            137            138            139            140         
  141            142            143            144            145         
  146            147            148            149            150         
  151            152            153            154            155         
  156            157            158            159            160         
  161            162            163            164            165         
  166            167            168            169            170         
  171            172            173            174            175         
  176         

 Variables with the same non-blank name are constrained to be equal


 Using diagonal initial Hessian 
 Scaling for Hessian diagonals: bonds = 1.00  angles = 0.25  torsions = 0.10

          --------
          Step   0
          --------


                         Geometry "geometry" -> "geometry"
                         ---------------------------------

 Output coordinates in angstroms (scale by  1.889725989 to convert to a.u.)

  No.       Tag          Charge          X              Y              Z
 ---- ---------------- ---------- -------------- -------------- --------------
    1 H                    1.0000     1.41400000     1.41400000     1.41400000
    2 H                    1.0000    -1.41400000    -1.41400000     1.41400000
    3 H                    1.0000    -1.41400000     1.41400000    -1.41400000
    4 H                    1.0000     1.41400000    -1.41400000    -1.41400000
    5 H                    1.0000     1.41400000     1.41400000    -1.41400000
    6 H                    1.0000    -1.41400000    -1.41400000    -1.41400000
    7 H                    1.0000     1.41400000    -1.41400000     1.41400000
    8 H                    1.0000    -1.41400000     1.41400000     1.41400000
    9 C                    6.0000     0.78980000     0.78980000     0.78980000
   10 C                    6.0000    -0.78980000    -0.78980000     0.78980000
   11 C                    6.0000    -0.78980000     0.78980000    -0.78980000
   12 C                    6.0000     0.78980000    -0.78980000    -0.78980000
   13 C                    6.0000     0.78980000     0.78980000    -0.78980000
   14 C                    6.0000    -0.78980000    -0.78980000    -0.78980000
   15 C                    6.0000     0.78980000    -0.78980000     0.78980000
   16 C                    6.0000    -0.78980000     0.78980000     0.78980000

      Atomic Mass 
      ----------- 

      H                  1.007825
      C                 12.000000


 Effective nuclear repulsion energy (a.u.)     365.3953687263

            Nuclear Dipole moment (a.u.) 
            ----------------------------
        X                 Y               Z
 ---------------- ---------------- ----------------
     0.0000000000     0.0000000000     0.0000000000

      Symmetry information
      --------------------

 Group name              Oh       
 Group number             44
 Group order              48
 No. of unique centers     2

      Symmetry unique atoms

     1    9

                                 NWChem SCF Module
                                 -----------------


                   cubane MP2/aug-cc-pVTZ geometry optimization



  ao basis        = "ao basis"
  functions       =   552
  atoms           =    16
  closed shells   =    28
  open shells     =     0
  charge          =   0.00
  wavefunction    = RHF 
  input vectors   = atomic
  output vectors  = ./cubane.movecs
  use symmetry    = T
  symmetry adapt  = T


 Summary of "ao basis" -> "ao basis" (spherical)
 ------------------------------------------------------------------------------
       Tag                 Description            Shells   Functions and Types
 ---------------- ------------------------------  ------  ---------------------
 H                        aug-cc-pVTZ                9       23   4s3p2d
 C                        aug-cc-pVTZ               14       46   5s4p3d2f


      Symmetry analysis of basis
      --------------------------

        a1g        25
        a1u         2
        a2g         2
        a2u        25
        eg         42
        eu         42
        t1g        69
        t1u       138
        t2g       138
        t2u        69


 Forming initial guess at       0.7s


 !! The overlap matrix has  11 vectors deemed linearly dependent with
    eigenvalues:
 3.02D-07 4.97D-07 2.28D-06 2.28D-06 2.28D-06 3.25D-06 3.89D-06 3.89D-06
 3.89D-06 6.34D-06 6.34D-06


      Superposition of Atomic Density Guess
      -------------------------------------

 Sum of atomic energies:        -305.36385896

      Non-variational initial energy
      ------------------------------

 Total energy =    -311.722114
 1-e energy   =   -1133.530684
 2-e energy   =     456.413201
 HOMO         =      -0.297745
 LUMO         =       0.014888


      Symmetry analysis of molecular orbitals - initial
      -------------------------------------------------

  Numbering of irreducible representations: 

     1 a1g         2 a1u         3 a2g         4 a2u         5 eg      
     6 eu          7 t1g         8 t1u         9 t2g        10 t2u     

  Orbital symmetries:

     1 a1g         2 t1u         3 t1u         4 t1u         5 t2g     
     6 t2g         7 t2g         8 a2u         9 a1g        10 t1u     
    11 t1u        12 t1u        13 t2g        14 t2g        15 t2g     
    16 a1g        17 a2u        18 eg         19 eg         20 t1u     
    21 t1u        22 t1u        23 t2u        24 t2u        25 t2u     
    26 t2g        27 t2g        28 t2g        29 t1u        30 t1u     
    31 t1u        32 a1g        33 t1u        34 t1u        35 t1u     
    36 t2g        37 t2g        38 t2g     


 Starting SCF solution at      23.5s



 ----------------------------------------------
         Quadratically convergent ROHF

 Convergence threshold     :          1.000E-06
 Maximum no. of iterations :           30
 Final Fock-matrix accuracy:          1.000E-10
 ----------------------------------------------


              iter       energy          gnorm     gmax       time
             ----- ------------------- --------- --------- --------
                 1     -307.3962316969  9.86D-01  2.03D-01     47.0
                 2     -307.4758428929  3.18D-01  4.67D-02     70.8
                 3     -307.4844978098  9.60D-03  1.52D-03    137.2
                 4     -307.4845087739  1.66D-05  3.04D-06    248.8
                 5     -307.4845087740  2.97D-08  7.47D-09    359.2


       Final RHF  results 
       ------------------ 

         Total SCF energy =   -307.484508773976
      One-electron energy =  -1140.182102055212
      Two-electron energy =    467.302224554906
 Nuclear repulsion energy =    365.395368726330

        Time for solution =    336.2s



       Symmetry analysis of molecular orbitals - final
       -----------------------------------------------

  Numbering of irreducible representations: 

     1 a1g         2 a1u         3 a2g         4 a2u         5 eg      
     6 eu          7 t1g         8 t1u         9 t2g        10 t2u     

  Orbital symmetries:

     1 a1g         2 t1u         3 t1u         4 t1u         5 t2g     
     6 t2g         7 t2g         8 a2u         9 a1g        10 t1u     
    11 t1u        12 t1u        13 t2g        14 t2g        15 t2g     
    16 a1g        17 a2u        18 t1u        19 t1u        20 t1u     
    21 eg         22 eg         23 t2u        24 t2u        25 t2u     
    26 t2g        27 t2g        28 t2g        29 a1g        30 t1u     
    31 t1u        32 t1u        33 t2g        34 t2g        35 t2g     
    36 a2u        37 eg         38 eg      

             Final eigenvalues
             -----------------

              1      
    1  -11.2237
    2  -11.2233
    3  -11.2233
    4  -11.2233
    5  -11.2228
    6  -11.2228
    7  -11.2228
    8  -11.2223
    9   -1.2314
   10   -0.9727
   11   -0.9727
   12   -0.9727
   13   -0.7688
   14   -0.7688
   15   -0.7688
   16   -0.7083
   17   -0.6461
   18   -0.5793
   19   -0.5793
   20   -0.5793
   21   -0.5722
   22   -0.5722
   23   -0.3874
   24   -0.3874
   25   -0.3874
   26   -0.3834
   27   -0.3834
   28   -0.3834
   29    0.0279
   30    0.0339
   31    0.0339
   32    0.0339
   33    0.0525
   34    0.0525
   35    0.0525
   36    0.0741
   37    0.0951
   38    0.0951

                       ROHF Final Molecular Orbital Analysis
                       -------------------------------------

 Vector    9  Occ=2.000000D+00  E=-1.231389D+00  Symmetry=a1g
              MO Center=  4.3D-15,  8.0D-15,  5.7D-15, r^2= 1.7D+00
   Bfn.  Coefficient  Atom+Function         Bfn.  Coefficient  Atom+Function  
  ----- ------------  ---------------      ----- ------------  ---------------
   186      0.164873   9 C  s               232      0.164873  10 C  s         
   278      0.164873  11 C  s               324      0.164873  12 C  s         
   370      0.164873  13 C  s               416      0.164873  14 C  s         
   462      0.164873  15 C  s               508      0.164873  16 C  s         

 Vector   10  Occ=2.000000D+00  E=-9.727080D-01  Symmetry=t1u
              MO Center= -2.2D-16,  6.8D-14, -1.5D-14, r^2= 2.7D+00
   Bfn.  Coefficient  Atom+Function         Bfn.  Coefficient  Atom+Function  
  ----- ------------  ---------------      ----- ------------  ---------------
   186      0.244772   9 C  s               416     -0.244772  14 C  s         
   278     -0.231688  11 C  s               462      0.231688  15 C  s         

 Vector   11  Occ=2.000000D+00  E=-9.727080D-01  Symmetry=t1u
              MO Center=  5.6D-16,  1.4D-15, -7.0D-16, r^2= 2.7D+00
   Bfn.  Coefficient  Atom+Function         Bfn.  Coefficient  Atom+Function  
  ----- ------------  ---------------      ----- ------------  ---------------
   232      0.284441  10 C  s               370     -0.284441  13 C  s         
   278     -0.158681  11 C  s               462      0.158681  15 C  s         

 Vector   12  Occ=2.000000D+00  E=-9.727080D-01  Symmetry=t1u
              MO Center=  6.2D-15,  2.5D-14,  3.8D-14, r^2= 2.7D+00
   Bfn.  Coefficient  Atom+Function         Bfn.  Coefficient  Atom+Function  
  ----- ------------  ---------------      ----- ------------  ---------------
   324      0.292433  12 C  s               508     -0.292433  16 C  s         

 Vector   13  Occ=2.000000D+00  E=-7.687933D-01  Symmetry=t2g
              MO Center=  1.1D-13,  7.4D-14,  1.6D-13, r^2= 4.1D+00
   Bfn.  Coefficient  Atom+Function         Bfn.  Coefficient  Atom+Function  
  ----- ------------  ---------------      ----- ------------  ---------------
   186      0.230687   9 C  s               416      0.230687  14 C  s         
   232     -0.179556  10 C  s               370     -0.179556  13 C  s         

 Vector   14  Occ=2.000000D+00  E=-7.687933D-01  Symmetry=t2g
              MO Center=  1.8D-14,  5.3D-14,  8.9D-14, r^2= 4.1D+00
   Bfn.  Coefficient  Atom+Function         Bfn.  Coefficient  Atom+Function  
  ----- ------------  ---------------      ----- ------------  ---------------
   324      0.220419  12 C  s               508      0.220419  16 C  s         
   278     -0.191918  11 C  s               462     -0.191918  15 C  s         

 Vector   15  Occ=2.000000D+00  E=-7.687933D-01  Symmetry=t2g
              MO Center= -6.6D-13, -4.0D-13,  1.0D-13, r^2= 4.1D+00
   Bfn.  Coefficient  Atom+Function         Bfn.  Coefficient  Atom+Function  
  ----- ------------  ---------------      ----- ------------  ---------------
   232      0.179197  10 C  s               278     -0.179880  11 C  s         
   370      0.179197  13 C  s               462     -0.179880  15 C  s         

 Vector   16  Occ=2.000000D+00  E=-7.082672D-01  Symmetry=a1g
              MO Center= -1.0D-13,  1.8D-13,  9.4D-14, r^2= 4.3D+00
   Bfn.  Coefficient  Atom+Function         Bfn.  Coefficient  Atom+Function  
  ----- ------------  ---------------      ----- ------------  ---------------
   188      0.070875   9 C  s               234      0.070875  10 C  s         
   280      0.070875  11 C  s               326      0.070875  12 C  s         
   372      0.070875  13 C  s               418      0.070875  14 C  s         
   464      0.070875  15 C  s               510      0.070875  16 C  s         
   193      0.067035   9 C  px              194      0.067035   9 C  py        

 Vector   17  Occ=2.000000D+00  E=-6.460893D-01  Symmetry=a2u
              MO Center=  2.8D-14, -5.6D-14, -5.4D-15, r^2= 5.1D+00
   Bfn.  Coefficient  Atom+Function         Bfn.  Coefficient  Atom+Function  
  ----- ------------  ---------------      ----- ------------  ---------------
   186      0.121756   9 C  s               232      0.121756  10 C  s         
   278      0.121756  11 C  s               324      0.121756  12 C  s         
   370     -0.121756  13 C  s               416     -0.121756  14 C  s         
   462     -0.121756  15 C  s               508     -0.121756  16 C  s         

 Vector   18  Occ=2.000000D+00  E=-5.792602D-01  Symmetry=t1u
              MO Center= -7.9D-14, -2.4D-13,  1.1D-13, r^2= 4.2D+00
   Bfn.  Coefficient  Atom+Function         Bfn.  Coefficient  Atom+Function  
  ----- ------------  ---------------      ----- ------------  ---------------
    25      0.118994   2 H  s                94     -0.118994   5 H  s         
   241      0.118690  10 C  pz              379      0.118690  13 C  pz        
   240     -0.115300  10 C  py              378     -0.115300  13 C  py        

 Vector   19  Occ=2.000000D+00  E=-5.792602D-01  Symmetry=t1u
              MO Center= -5.1D-15, -1.8D-15,  8.6D-15, r^2= 4.2D+00
   Bfn.  Coefficient  Atom+Function         Bfn.  Coefficient  Atom+Function  
  ----- ------------  ---------------      ----- ------------  ---------------
   333      0.116950  12 C  pz              517      0.116950  16 C  pz        
   287     -0.110793  11 C  pz              471     -0.110793  15 C  pz        
    71     -0.105553   4 H  s               163      0.105553   8 H  s         

 Vector   20  Occ=2.000000D+00  E=-5.792602D-01  Symmetry=t1u
              MO Center=  3.7D-16,  6.0D-15, -1.7D-15, r^2= 4.2D+00
   Bfn.  Coefficient  Atom+Function         Bfn.  Coefficient  Atom+Function  
  ----- ------------  ---------------      ----- ------------  ---------------
   194      0.114094   9 C  py              424      0.114094  14 C  py        
   286     -0.111986  11 C  py              470     -0.111986  15 C  py        

 Vector   21  Occ=2.000000D+00  E=-5.721829D-01  Symmetry=eg
              MO Center= -6.2D-16,  7.4D-16, -2.3D-15, r^2= 2.6D+00
   Bfn.  Coefficient  Atom+Function         Bfn.  Coefficient  Atom+Function  
  ----- ------------  ---------------      ----- ------------  ---------------
   195      0.116140   9 C  pz              241      0.116140  10 C  pz        
   287     -0.116140  11 C  pz              333     -0.116140  12 C  pz        
   379     -0.116140  13 C  pz              425     -0.116140  14 C  pz        
   471      0.116140  15 C  pz              517      0.116140  16 C  pz        

 Vector   22  Occ=2.000000D+00  E=-5.721829D-01  Symmetry=eg
              MO Center=  6.4D-15,  3.8D-15,  0.0D+00, r^2= 2.6D+00
   Bfn.  Coefficient  Atom+Function         Bfn.  Coefficient  Atom+Function  
  ----- ------------  ---------------      ----- ------------  ---------------
   194     -0.102514   9 C  py              240      0.102514  10 C  py        
   286     -0.102514  11 C  py              332      0.102514  12 C  py        
   378     -0.102514  13 C  py              424      0.102514  14 C  py        
   470      0.102514  15 C  py              516     -0.102514  16 C  py        
   193      0.098646   9 C  px              239     -0.098646  10 C  px        

 Vector   23  Occ=2.000000D+00  E=-3.873847D-01  Symmetry=t2u
              MO Center= -7.2D-16, -3.6D-16, -1.7D-16, r^2= 2.9D+00
   Bfn.  Coefficient  Atom+Function         Bfn.  Coefficient  Atom+Function  
  ----- ------------  ---------------      ----- ------------  ---------------
   193      0.145816   9 C  px              331     -0.145816  12 C  px        
   423      0.145816  14 C  px              515     -0.145816  16 C  px        

 Vector   24  Occ=2.000000D+00  E=-3.873847D-01  Symmetry=t2u
              MO Center= -1.0D-15,  6.1D-16, -1.7D-16, r^2= 2.9D+00
   Bfn.  Coefficient  Atom+Function         Bfn.  Coefficient  Atom+Function  
  ----- ------------  ---------------      ----- ------------  ---------------
   239      0.147143  10 C  px              285     -0.147143  11 C  px        
   377      0.147143  13 C  px              469     -0.147143  15 C  px        

 Vector   25  Occ=2.000000D+00  E=-3.873847D-01  Symmetry=t2u
              MO Center=  1.2D-15,  1.5D-16,  2.0D-15, r^2= 2.9D+00
   Bfn.  Coefficient  Atom+Function         Bfn.  Coefficient  Atom+Function  
  ----- ------------  ---------------      ----- ------------  ---------------
   194      0.151273   9 C  py              286     -0.151273  11 C  py        
   424      0.151273  14 C  py              470     -0.151273  15 C  py        

 Vector   26  Occ=2.000000D+00  E=-3.833863D-01  Symmetry=t2g
              MO Center=  7.2D-13,  3.8D-13,  3.3D-13, r^2= 3.5D+00
   Bfn.  Coefficient  Atom+Function         Bfn.  Coefficient  Atom+Function  
  ----- ------------  ---------------      ----- ------------  ---------------
   198      0.174152   9 C  pz              428     -0.174152  14 C  pz        
   336      0.165141  12 C  pz              520     -0.165141  16 C  pz        

 Vector   27  Occ=2.000000D+00  E=-3.833863D-01  Symmetry=t2g
              MO Center= -3.4D-15, -5.8D-15,  7.5D-15, r^2= 3.5D+00
   Bfn.  Coefficient  Atom+Function         Bfn.  Coefficient  Atom+Function  
  ----- ------------  ---------------      ----- ------------  ---------------
   243      0.153973  10 C  py              381     -0.153973  13 C  py        

 Vector   28  Occ=2.000000D+00  E=-3.833863D-01  Symmetry=t2g
              MO Center=  2.4D-15, -1.3D-15, -1.4D-15, r^2= 3.5D+00
   Bfn.  Coefficient  Atom+Function         Bfn.  Coefficient  Atom+Function  
  ----- ------------  ---------------      ----- ------------  ---------------
   288      0.171831  11 C  px              472     -0.171831  15 C  px        
   334      0.158130  12 C  px              518     -0.158130  16 C  px        

 Vector   29  Occ=0.000000D+00  E= 2.787135D-02  Symmetry=a1g
              MO Center= -8.7D-15,  1.3D-14,  2.1D-14, r^2= 3.3D+01
   Bfn.  Coefficient  Atom+Function         Bfn.  Coefficient  Atom+Function  
  ----- ------------  ---------------      ----- ------------  ---------------
   189      1.581152   9 C  s               235      1.581152  10 C  s         
   281      1.581152  11 C  s               327      1.581152  12 C  s         
   373      1.581152  13 C  s               419      1.581152  14 C  s         
   465      1.581152  15 C  s               511      1.581152  16 C  s         
     4     -1.361839   1 H  s                27     -1.361839   2 H  s         

 Vector   30  Occ=0.000000D+00  E= 3.387833D-02  Symmetry=t1u
              MO Center= -8.7D-14, -5.7D-13,  3.4D-14, r^2= 3.8D+01
   Bfn.  Coefficient  Atom+Function         Bfn.  Coefficient  Atom+Function  
  ----- ------------  ---------------      ----- ------------  ---------------
   235      8.627337  10 C  s               373     -8.627337  13 C  s         
   327     -4.814646  12 C  s               511      4.814646  16 C  s         
    27      4.645192   2 H  s                96     -4.645192   5 H  s         
   189     -4.608311   9 C  s               419      4.608311  14 C  s         
    26     -3.680657   2 H  s                95      3.680657   5 H  s         

 Vector   31  Occ=0.000000D+00  E= 3.387833D-02  Symmetry=t1u
              MO Center=  4.5D-14, -1.2D-14,  2.3D-13, r^2= 3.8D+01
   Bfn.  Coefficient  Atom+Function         Bfn.  Coefficient  Atom+Function  
  ----- ------------  ---------------      ----- ------------  ---------------
   281      7.945664  11 C  s               465     -7.945664  15 C  s         
   189     -6.537420   9 C  s               419      6.537420  14 C  s         
    50      4.278161   3 H  s               142     -4.278161   7 H  s         
     4     -3.519924   1 H  s               119      3.519924   6 H  s         
    49     -3.389837   3 H  s               141      3.389837   7 H  s         

 Vector   32  Occ=0.000000D+00  E= 3.387833D-02  Symmetry=t1u
              MO Center= -4.9D-15,  4.7D-14, -2.2D-15, r^2= 3.8D+01
   Bfn.  Coefficient  Atom+Function         Bfn.  Coefficient  Atom+Function  
  ----- ------------  ---------------      ----- ------------  ---------------
   327      7.947481  12 C  s               511     -7.947481  16 C  s         
   189     -5.063259   9 C  s               281     -5.083737  11 C  s         
   419      5.063259  14 C  s               465      5.083737  15 C  s         
    73      4.279139   4 H  s               165     -4.279139   8 H  s         
    72     -3.390612   4 H  s               164      3.390612   8 H  s         

 Vector   33  Occ=0.000000D+00  E= 5.247593D-02  Symmetry=t2g
              MO Center=  2.1D-13, -1.4D-14, -1.1D-14, r^2= 3.9D+01
   Bfn.  Coefficient  Atom+Function         Bfn.  Coefficient  Atom+Function  
  ----- ------------  ---------------      ----- ------------  ---------------
    50      4.716194   3 H  s               142      4.716194   7 H  s         
    73     -4.547300   4 H  s               165     -4.547300   8 H  s         
    49      3.342311   3 H  s               141      3.342311   7 H  s         
    72     -3.222618   4 H  s               164     -3.222618   8 H  s         
   292     -2.165564  11 C  py              476      2.165564  15 C  py        

 Vector   34  Occ=0.000000D+00  E= 5.247593D-02  Symmetry=t2g
              MO Center=  3.5D-13,  1.9D-13,  1.3D-13, r^2= 3.9D+01
   Bfn.  Coefficient  Atom+Function         Bfn.  Coefficient  Atom+Function  
  ----- ------------  ---------------      ----- ------------  ---------------
     4      4.758259   1 H  s               119      4.758259   6 H  s         
    50     -3.867783   3 H  s               142     -3.867783   7 H  s         
     3      3.372122   1 H  s               118      3.372122   6 H  s         
    73     -2.973256   4 H  s               165     -2.973256   8 H  s         
    49     -2.741052   3 H  s               141     -2.741052   7 H  s         

 Vector   35  Occ=0.000000D+00  E= 5.247593D-02  Symmetry=t2g
              MO Center= -5.0D-14,  4.0D-14, -1.4D-13, r^2= 3.9D+01
   Bfn.  Coefficient  Atom+Function         Bfn.  Coefficient  Atom+Function  
  ----- ------------  ---------------      ----- ------------  ---------------
    27      5.429780   2 H  s                96      5.429780   5 H  s         
    26      3.848020   2 H  s                95      3.848020   5 H  s         
     4     -3.442153   1 H  s               119     -3.442153   6 H  s         
    73     -2.926783   4 H  s               165     -2.926783   8 H  s         
     3     -2.439413   1 H  s               118     -2.439413   6 H  s         

 Vector   36  Occ=0.000000D+00  E= 7.410175D-02  Symmetry=a2u
              MO Center=  3.9D-14, -2.0D-13, -7.1D-14, r^2= 4.3D+01
   Bfn.  Coefficient  Atom+Function         Bfn.  Coefficient  Atom+Function  
  ----- ------------  ---------------      ----- ------------  ---------------
     4      5.867172   1 H  s                27      5.867172   2 H  s         
    50      5.867172   3 H  s                73      5.867172   4 H  s         
    96     -5.867172   5 H  s               119     -5.867172   6 H  s         
   142     -5.867172   7 H  s               165     -5.867172   8 H  s         
   199     -1.615041   9 C  px              200     -1.615041   9 C  py        

 Vector   37  Occ=0.000000D+00  E= 9.508084D-02  Symmetry=eg
              MO Center=  1.1D-14, -2.2D-16, -2.5D-16, r^2= 2.1D+01
   Bfn.  Coefficient  Atom+Function         Bfn.  Coefficient  Atom+Function  
  ----- ------------  ---------------      ----- ------------  ---------------
   200      0.510419   9 C  py              246     -0.510419  10 C  py        
   292      0.510419  11 C  py              338     -0.510419  12 C  py        
   384      0.510419  13 C  py              430     -0.510419  14 C  py        
   476     -0.510419  15 C  py              522      0.510419  16 C  py        
   199     -0.350867   9 C  px              245      0.350867  10 C  px        

 Vector   38  Occ=0.000000D+00  E= 9.508084D-02  Symmetry=eg
              MO Center= -7.2D-15,  4.0D-16,  2.9D-15, r^2= 2.1D+01
   Bfn.  Coefficient  Atom+Function         Bfn.  Coefficient  Atom+Function  
  ----- ------------  ---------------      ----- ------------  ---------------
   201      0.497264   9 C  pz              247      0.497264  10 C  pz        
   293     -0.497264  11 C  pz              339     -0.497264  12 C  pz        
   385     -0.497264  13 C  pz              431     -0.497264  14 C  pz        
   477      0.497264  15 C  pz              523      0.497264  16 C  pz        
   199     -0.386808   9 C  px              245      0.386808  10 C  px        

 Vector   39  Occ=0.000000D+00  E= 9.943504D-02  Symmetry=t1u
              MO Center=  1.5D-14, -3.6D-13, -5.6D-13, r^2= 2.9D+01
   Bfn.  Coefficient  Atom+Function         Bfn.  Coefficient  Atom+Function  
  ----- ------------  ---------------      ----- ------------  ---------------
   235     22.933648  10 C  s               373    -22.933648  13 C  s         
   327    -12.999981  12 C  s               511     12.999981  16 C  s         
    26    -10.234746   2 H  s                95     10.234746   5 H  s         
    27      6.249322   2 H  s                96     -6.249322   5 H  s         
    72      5.801585   4 H  s               164     -5.801585   8 H  s         

 Vector   40  Occ=0.000000D+00  E= 9.943504D-02  Symmetry=t1u
              MO Center=  3.0D-12,  5.7D-13, -2.2D-12, r^2= 2.9D+01
   Bfn.  Coefficient  Atom+Function         Bfn.  Coefficient  Atom+Function  
  ----- ------------  ---------------      ----- ------------  ---------------
   327     19.423479  12 C  s               511    -19.423479  16 C  s         
   189    -15.627196   9 C  s               419     15.627196  14 C  s         
   281     -9.527267  11 C  s               465      9.527267  15 C  s         
    72     -8.668240   4 H  s               164      8.668240   8 H  s         
     3      6.974049   1 H  s               118     -6.974049   6 H  s         

 Vector   41  Occ=0.000000D+00  E= 9.943504D-02  Symmetry=t1u
              MO Center=  3.6D-12, -9.6D-12,  2.1D-12, r^2= 2.9D+01
   Bfn.  Coefficient  Atom+Function         Bfn.  Coefficient  Atom+Function  
  ----- ------------  ---------------      ----- ------------  ---------------
   281     20.897021  11 C  s               465    -20.897021  15 C  s         
   189    -17.199857   9 C  s               419     17.199857  14 C  s         
    49     -9.325847   3 H  s               141      9.325847   7 H  s         
     3      7.675890   1 H  s               118     -7.675890   6 H  s         
    50      5.694349   3 H  s               142     -5.694349   7 H  s         

 Vector   42  Occ=0.000000D+00  E= 1.193308D-01  Symmetry=a1g
              MO Center=  4.8D-13,  9.2D-13,  1.4D-13, r^2= 3.0D+01
   Bfn.  Coefficient  Atom+Function         Bfn.  Coefficient  Atom+Function  
  ----- ------------  ---------------      ----- ------------  ---------------
   189      2.803829   9 C  s               235      2.803829  10 C  s         
   281      2.803829  11 C  s               327      2.803829  12 C  s         
   373      2.803829  13 C  s               419      2.803829  14 C  s         
   465      2.803829  15 C  s               511      2.803829  16 C  s         
     4     -2.376004   1 H  s                27     -2.376004   2 H  s         

 Vector   43  Occ=0.000000D+00  E= 1.246551D-01  Symmetry=t2u
              MO Center= -8.5D-13,  4.6D-12,  8.4D-14, r^2= 2.5D+01
   Bfn.  Coefficient  Atom+Function         Bfn.  Coefficient  Atom+Function  
  ----- ------------  ---------------      ----- ------------  ---------------
   246      1.960450  10 C  py              338     -1.960450  12 C  py        
   384      1.960450  13 C  py              522     -1.960450  16 C  py        
   245     -1.591762  10 C  px              291      1.591762  11 C  px        
   383     -1.591762  13 C  px              475      1.591762  15 C  px        
   199      1.151755   9 C  px              337     -1.151755  12 C  px        

 Vector   44  Occ=0.000000D+00  E= 1.246551D-01  Symmetry=t2u
              MO Center= -4.9D-13, -2.3D-12, -1.1D-13, r^2= 2.5D+01
   Bfn.  Coefficient  Atom+Function         Bfn.  Coefficient  Atom+Function  
  ----- ------------  ---------------      ----- ------------  ---------------
   200      1.917665   9 C  py              292     -1.917665  11 C  py        
   430      1.917665  14 C  py              476     -1.917665  15 C  py        
   201     -1.676558   9 C  pz              247      1.676558  10 C  pz        
   385      1.676558  13 C  pz              431     -1.676558  14 C  pz        
   293     -1.074633  11 C  pz              339      1.074633  12 C  pz        

 Vector   45  Occ=0.000000D+00  E= 1.246551D-01  Symmetry=t2u
              MO Center=  2.6D-15,  2.2D-15, -5.2D-15, r^2= 2.5D+01
   Bfn.  Coefficient  Atom+Function         Bfn.  Coefficient  Atom+Function  
  ----- ------------  ---------------      ----- ------------  ---------------
   199      1.780081   9 C  px              337     -1.780081  12 C  px        
   429      1.780081  14 C  px              521     -1.780081  16 C  px        
   293      1.656665  11 C  pz              339     -1.656665  12 C  pz        
   477      1.656665  15 C  pz              523     -1.656665  16 C  pz        
   201     -1.267511   9 C  pz              247      1.267511  10 C  pz        

 Vector   46  Occ=0.000000D+00  E= 1.366072D-01  Symmetry=t1u
              MO Center=  4.8D-14, -3.6D-13,  1.4D-13, r^2= 2.7D+01
   Bfn.  Coefficient  Atom+Function         Bfn.  Coefficient  Atom+Function  
  ----- ------------  ---------------      ----- ------------  ---------------
   281      5.338808  11 C  s               465     -5.338808  15 C  s         
   293      4.376346  11 C  pz              477      4.376346  15 C  pz        
   291      4.257811  11 C  px              475      4.257811  15 C  px        
    50      4.116878   3 H  s               142     -4.116878   7 H  s         
   292     -3.988952  11 C  py              476     -3.988952  15 C  py        

 Vector   47  Occ=0.000000D+00  E= 1.366072D-01  Symmetry=t1u
              MO Center=  8.5D-14, -2.0D-14, -5.4D-15, r^2= 2.7D+01
   Bfn.  Coefficient  Atom+Function         Bfn.  Coefficient  Atom+Function  
  ----- ------------  ---------------      ----- ------------  ---------------
   189      5.053044   9 C  s               419     -5.053044  14 C  s         
   201     -4.223882   9 C  pz              431     -4.223882  14 C  pz        
   235     -4.145808  10 C  s               373      4.145808  13 C  s         
   200     -3.983181   9 C  py              430     -3.983181  14 C  py        
     4      3.896519   1 H  s               119     -3.896519   6 H  s         

 Vector   48  Occ=0.000000D+00  E= 1.366072D-01  Symmetry=t1u
              MO Center= -2.8D-14,  4.7D-14,  1.6D-13, r^2= 2.7D+01
   Bfn.  Coefficient  Atom+Function         Bfn.  Coefficient  Atom+Function  
  ----- ------------  ---------------      ----- ------------  ---------------
   327      4.667810  12 C  s               511     -4.667810  16 C  s         
   338      3.869013  12 C  py              522      3.869013  16 C  py        
   337     -3.819033  12 C  px              521     -3.819033  16 C  px        
    73      3.599456   4 H  s               165     -3.599456   8 H  s         
   235     -3.494786  10 C  s               373      3.494786  13 C  s         

 Vector   49  Occ=0.000000D+00  E= 1.474711D-01  Symmetry=t2g
              MO Center= -7.9D-13,  1.7D-12, -2.3D-12, r^2= 2.9D+01
   Bfn.  Coefficient  Atom+Function         Bfn.  Coefficient  Atom+Function  
  ----- ------------  ---------------      ----- ------------  ---------------
    49      8.133712   3 H  s               141      8.133712   7 H  s         
    72     -6.726513   4 H  s               164     -6.726513   8 H  s         
   281      6.332197  11 C  s               465      6.332197  15 C  s         
    50      5.431636   3 H  s               142      5.431636   7 H  s         
   327     -5.236676  12 C  s               511     -5.236676  16 C  s         

 Vector   50  Occ=0.000000D+00  E= 1.474711D-01  Symmetry=t2g
              MO Center=  6.3D-13, -4.5D-12, -6.8D-14, r^2= 2.9D+01
   Bfn.  Coefficient  Atom+Function         Bfn.  Coefficient  Atom+Function  
  ----- ------------  ---------------      ----- ------------  ---------------
    26      8.953174   2 H  s                95      8.953174   5 H  s         
   235      6.970159  10 C  s               373      6.970159  13 C  s         
    72     -6.652135   4 H  s               164     -6.652135   8 H  s         
    27      5.978867   2 H  s                96      5.978867   5 H  s         
   327     -5.178771  12 C  s               511     -5.178771  16 C  s         

 Vector   51  Occ=0.000000D+00  E= 1.474711D-01  Symmetry=t2g
              MO Center= -1.9D-12,  2.5D-12, -1.7D-12, r^2= 2.9D+01
   Bfn.  Coefficient  Atom+Function         Bfn.  Coefficient  Atom+Function  
  ----- ------------  ---------------      ----- ------------  ---------------
     3      9.527778   1 H  s               118      9.527778   6 H  s         
   189      7.417496   9 C  s               419      7.417496  14 C  s         
     4      6.362584   1 H  s               119      6.362584   6 H  s         
    49     -5.198319   3 H  s               141     -5.198319   7 H  s         
   281     -4.046957  11 C  s               465     -4.046957  15 C  s         

 Vector   52  Occ=0.000000D+00  E= 1.591391D-01  Symmetry=t2g
              MO Center= -7.9D-13, -4.4D-13,  1.6D-13, r^2= 3.0D+01
   Bfn.  Coefficient  Atom+Function         Bfn.  Coefficient  Atom+Function  
  ----- ------------  ---------------      ----- ------------  ---------------
   291      7.594020  11 C  px              475     -7.594020  15 C  px        
   199      6.753977   9 C  px              429     -6.753977  14 C  px        
   293      6.352414  11 C  pz              477     -6.352414  15 C  pz        
   337      6.042224  12 C  px              521     -6.042224  16 C  px        
   201      5.512371   9 C  pz              431     -5.512371  14 C  pz        

 Vector   53  Occ=0.000000D+00  E= 1.591391D-01  Symmetry=t2g
              MO Center=  1.2D-12,  2.8D-12,  7.0D-12, r^2= 3.0D+01
   Bfn.  Coefficient  Atom+Function         Bfn.  Coefficient  Atom+Function  
  ----- ------------  ---------------      ----- ------------  ---------------
   339      7.332216  12 C  pz              523     -7.332216  16 C  pz        
   338      6.745109  12 C  py              522     -6.745109  16 C  py        
   201      6.562505   9 C  pz              431     -6.562505  14 C  pz        
   200      5.975398   9 C  py              430     -5.975398  14 C  py        
   247      5.630615  10 C  pz              385     -5.630615  13 C  pz        

 Vector   54  Occ=0.000000D+00  E= 1.591391D-01  Symmetry=t2g
              MO Center= -4.4D-14,  7.2D-13,  1.2D-13, r^2= 3.0D+01
   Bfn.  Coefficient  Atom+Function         Bfn.  Coefficient  Atom+Function  
  ----- ------------  ---------------      ----- ------------  ---------------
   246      7.315834  10 C  py              384     -7.315834  13 C  py        
   245      6.504038  10 C  px              383     -6.504038  13 C  px        
   200      6.276685   9 C  py              430     -6.276685  14 C  py        
   292      5.727978  11 C  py              476     -5.727978  15 C  py        
   199      5.464888   9 C  px              429     -5.464888  14 C  px        

 Vector   55  Occ=0.000000D+00  E= 1.617107D-01  Symmetry=t1g
              MO Center= -5.4D-12,  1.1D-12,  5.7D-12, r^2= 2.7D+01
   Bfn.  Coefficient  Atom+Function         Bfn.  Coefficient  Atom+Function  
  ----- ------------  ---------------      ----- ------------  ---------------
   199      9.513174   9 C  px              337     -9.513174  12 C  px        
   429     -9.513174  14 C  px              521      9.513174  16 C  px        
   201     -8.386842   9 C  pz              247      8.386842  10 C  pz        
   385     -8.386842  13 C  pz              431      8.386842  14 C  pz        
   293      5.545940  11 C  pz              339     -5.545940  12 C  pz        

 Vector   56  Occ=0.000000D+00  E= 1.617107D-01  Symmetry=t1g
              MO Center=  1.4D-13, -4.6D-13, -3.8D-14, r^2= 2.7D+01
   Bfn.  Coefficient  Atom+Function         Bfn.  Coefficient  Atom+Function  
  ----- ------------  ---------------      ----- ------------  ---------------
   200      9.670018   9 C  py              292     -9.670018  11 C  py        
   430     -9.670018  14 C  py              476      9.670018  15 C  py        
   293     -7.569022  11 C  pz              339      7.569022  12 C  pz        
   477      7.569022  15 C  pz              523     -7.569022  16 C  pz        
   201     -6.581126   9 C  pz              247      6.581126  10 C  pz        

 Vector   57  Occ=0.000000D+00  E= 1.617107D-01  Symmetry=t1g
              MO Center=  2.8D-12,  5.8D-12, -3.7D-12, r^2= 2.7D+01
   Bfn.  Coefficient  Atom+Function         Bfn.  Coefficient  Atom+Function  
  ----- ------------  ---------------      ----- ------------  ---------------
   245      9.493242  10 C  px              291     -9.493242  11 C  px        
   383     -9.493242  13 C  px              475      9.493242  15 C  px        
   246     -8.846371  10 C  py              338      8.846371  12 C  py        
   384      8.846371  13 C  py              522     -8.846371  16 C  py        
   293      5.101101  11 C  pz              339     -5.101101  12 C  pz        

 Vector   58  Occ=0.000000D+00  E= 1.848580D-01  Symmetry=a2u
              MO Center=  1.6D-12, -3.5D-12, -4.5D-12, r^2= 2.9D+01
   Bfn.  Coefficient  Atom+Function         Bfn.  Coefficient  Atom+Function  
  ----- ------------  ---------------      ----- ------------  ---------------
     4      6.486483   1 H  s                27      6.486483   2 H  s         
    50      6.486483   3 H  s                73      6.486483   4 H  s         
    96     -6.486483   5 H  s               119     -6.486483   6 H  s         
   142     -6.486483   7 H  s               165     -6.486483   8 H  s         
   199     -3.158105   9 C  px              200     -3.158105   9 C  py        

 Vector   59  Occ=0.000000D+00  E= 2.015873D-01  Symmetry=t1u
              MO Center=  1.4D-12, -1.2D-11, -5.3D-12, r^2= 1.7D+01
   Bfn.  Coefficient  Atom+Function         Bfn.  Coefficient  Atom+Function  
  ----- ------------  ---------------      ----- ------------  ---------------
   327     28.766442  12 C  s               511    -28.766442  16 C  s         
   189    -16.410977   9 C  s               419     16.410977  14 C  s         
    72    -14.922134   4 H  s               164     14.922134   8 H  s         
   281    -13.335760  11 C  s               465     13.335760  15 C  s         
     3      8.512933   1 H  s               118     -8.512933   6 H  s         

 Vector   60  Occ=0.000000D+00  E= 2.015873D-01  Symmetry=t1u
              MO Center=  3.7D-13,  9.2D-13,  3.4D-13, r^2= 1.7D+01
   Bfn.  Coefficient  Atom+Function         Bfn.  Coefficient  Atom+Function  
  ----- ------------  ---------------      ----- ------------  ---------------
   189     23.681012   9 C  s               419    -23.681012  14 C  s         
   235    -22.739515  10 C  s               373     22.739515  13 C  s         
     3    -12.284148   1 H  s               118     12.284148   6 H  s         
    26     11.795761   2 H  s                95    -11.795761   5 H  s         
   281    -10.403340  11 C  s               465     10.403340  15 C  s         

 Vector   61  Occ=0.000000D+00  E= 2.015873D-01  Symmetry=t1u
              MO Center=  3.9D-12,  2.7D-12, -2.2D-12, r^2= 1.7D+01
   Bfn.  Coefficient  Atom+Function         Bfn.  Coefficient  Atom+Function  
  ----- ------------  ---------------      ----- ------------  ---------------
   281     25.896948  11 C  s               465    -25.896948  15 C  s         
   235    -20.944626  10 C  s               373     20.944626  13 C  s         
    49    -13.433629   3 H  s               141     13.433629   7 H  s         
   189    -11.252260   9 C  s               419     11.252260  14 C  s         
    26     10.864691   2 H  s                95    -10.864691   5 H  s         

 Vector   62  Occ=0.000000D+00  E= 2.023849D-01  Symmetry=eu
              MO Center= -3.2D-12, -2.2D-13,  2.5D-13, r^2= 3.1D+01
   Bfn.  Coefficient  Atom+Function         Bfn.  Coefficient  Atom+Function  
  ----- ------------  ---------------      ----- ------------  ---------------
   199     28.493248   9 C  px              245    -28.493248  10 C  px        
   291    -28.493248  11 C  px              337     28.493248  12 C  px        
   383    -28.493248  13 C  px              429     28.493248  14 C  px        
   475    -28.493248  15 C  px              521     28.493248  16 C  px        
   201    -14.837980   9 C  pz              247    -14.837980  10 C  pz        

 Vector   63  Occ=0.000000D+00  E= 2.023849D-01  Symmetry=eu
              MO Center= -1.3D-12,  2.2D-12, -4.1D-12, r^2= 3.1D+01
   Bfn.  Coefficient  Atom+Function         Bfn.  Coefficient  Atom+Function  
  ----- ------------  ---------------      ----- ------------  ---------------
   200     25.017296   9 C  py              246    -25.017296  10 C  py        
   292     25.017296  11 C  py              338    -25.017296  12 C  py        
   384    -25.017296  13 C  py              430     25.017296  14 C  py        
   476     25.017296  15 C  py              522    -25.017296  16 C  py        
   201    -24.334457   9 C  pz              247    -24.334457  10 C  pz        

 Vector   64  Occ=0.000000D+00  E= 2.318547D-01  Symmetry=a1g
              MO Center=  1.3D-12, -3.1D-12,  6.3D-13, r^2= 1.7D+01
   Bfn.  Coefficient  Atom+Function         Bfn.  Coefficient  Atom+Function  
  ----- ------------  ---------------      ----- ------------  ---------------
     3      7.334167   1 H  s                26      7.334167   2 H  s         
    49      7.334167   3 H  s                72      7.334167   4 H  s         
    95      7.334167   5 H  s               118      7.334167   6 H  s         
   141      7.334167   7 H  s               164      7.334167   8 H  s         
   199      2.115042   9 C  px              200      2.115042   9 C  py        

 Vector   65  Occ=0.000000D+00  E= 2.816386D-01  Symmetry=a1g
              MO Center= -5.4D-12,  1.2D-11,  5.5D-12, r^2= 1.8D+01
   Bfn.  Coefficient  Atom+Function         Bfn.  Coefficient  Atom+Function  
  ----- ------------  ---------------      ----- ------------  ---------------
     3      4.421673   1 H  s                26      4.421673   2 H  s         
    49      4.421673   3 H  s                72      4.421673   4 H  s         
    95      4.421673   5 H  s               118      4.421673   6 H  s         
   141      4.421673   7 H  s               164      4.421673   8 H  s         
   199      2.839259   9 C  px              200      2.839259   9 C  py        

 Vector   66  Occ=0.000000D+00  E= 2.833209D-01  Symmetry=eg
              MO Center=  3.1D-13,  7.2D-13, -5.4D-15, r^2= 1.6D+01
   Bfn.  Coefficient  Atom+Function         Bfn.  Coefficient  Atom+Function  
  ----- ------------  ---------------      ----- ------------  ---------------
    12     -0.881185   1 H  py               35      0.881185   2 H  py        
    58     -0.881185   3 H  py               81      0.881185   4 H  py        
   104     -0.881185   5 H  py              127      0.881185   6 H  py        
   150      0.881185   7 H  py              173     -0.881185   8 H  py        
    11      0.874815   1 H  px               34     -0.874815   2 H  px        

 Vector   67  Occ=0.000000D+00  E= 2.833209D-01  Symmetry=eg
              MO Center=  5.3D-14, -1.5D-13,  1.7D-13, r^2= 1.6D+01
   Bfn.  Coefficient  Atom+Function         Bfn.  Coefficient  Atom+Function  
  ----- ------------  ---------------      ----- ------------  ---------------
    13      1.013827   1 H  pz               36      1.013827   2 H  pz        
    59     -1.013827   3 H  pz               82     -1.013827   4 H  pz        
   105     -1.013827   5 H  pz              128     -1.013827   6 H  pz        
   151      1.013827   7 H  pz              174      1.013827   8 H  pz        
   198     -0.780592   9 C  pz              244     -0.780592  10 C  pz        

 Vector   68  Occ=0.000000D+00  E= 3.009684D-01  Symmetry=t1u
              MO Center=  9.0D-13, -6.9D-14, -4.8D-13, r^2= 2.2D+01
   Bfn.  Coefficient  Atom+Function         Bfn.  Coefficient  Atom+Function  
  ----- ------------  ---------------      ----- ------------  ---------------
   281     30.633256  11 C  s               465    -30.633256  15 C  s         
   189    -21.929144   9 C  s               419     21.929144  14 C  s         
    49    -17.788146   3 H  s               141     17.788146   7 H  s         
   235    -13.405928  10 C  s               373     13.405928  13 C  s         
     3     12.733835   1 H  s               118    -12.733835   6 H  s         

 Vector   69  Occ=0.000000D+00  E= 3.009684D-01  Symmetry=t1u
              MO Center=  2.2D-13,  1.7D-12, -3.5D-13, r^2= 2.2D+01
   Bfn.  Coefficient  Atom+Function         Bfn.  Coefficient  Atom+Function  
  ----- ------------  ---------------      ----- ------------  ---------------
   327    -25.108049  12 C  s               511     25.108049  16 C  s         
   189     23.982940   9 C  s               419    -23.982940  14 C  s         
   281     14.965353  11 C  s               465    -14.965353  15 C  s         
    72     14.579765   4 H  s               164    -14.579765   8 H  s         
     3    -13.926435   1 H  s               118     13.926435   6 H  s         

 Vector   70  Occ=0.000000D+00  E= 3.009684D-01  Symmetry=t1u
              MO Center=  2.9D-11,  1.6D-10, -1.9D-11, r^2= 2.2D+01
   Bfn.  Coefficient  Atom+Function         Bfn.  Coefficient  Atom+Function  
  ----- ------------  ---------------      ----- ------------  ---------------
   235     29.061332  10 C  s               373    -29.061332  13 C  s         
   327    -23.734175  12 C  s               511     23.734175  16 C  s         
    26    -16.875360   2 H  s                95     16.875360   5 H  s         
    72     13.781982   4 H  s               164    -13.781982   8 H  s         
   189    -12.639758   9 C  s               419     12.639758  14 C  s         

 Vector   71  Occ=0.000000D+00  E= 3.202144D-01  Symmetry=t2g
              MO Center= -9.3D-13,  1.7D-12, -4.8D-12, r^2= 2.0D+01
   Bfn.  Coefficient  Atom+Function         Bfn.  Coefficient  Atom+Function  
  ----- ------------  ---------------      ----- ------------  ---------------
    49     15.011999   3 H  s               141     15.011999   7 H  s         
   281     12.557131  11 C  s               465     12.557131  15 C  s         
    72    -11.364934   4 H  s               164    -11.364934   8 H  s         
   327     -9.506460  12 C  s               511     -9.506460  16 C  s         
   290      6.781400  11 C  pz              474     -6.781400  15 C  pz        

 Vector   72  Occ=0.000000D+00  E= 3.202144D-01  Symmetry=t2g
              MO Center= -4.1D-11, -1.5D-10,  5.3D-11, r^2= 2.0D+01
   Bfn.  Coefficient  Atom+Function         Bfn.  Coefficient  Atom+Function  
  ----- ------------  ---------------      ----- ------------  ---------------
    26     15.333287   2 H  s                95     15.333287   5 H  s         
   235     12.825880  10 C  s               373     12.825880  13 C  s         
    72    -10.045811   4 H  s               164    -10.045811   8 H  s         
   327     -8.403049  12 C  s               511     -8.403049  16 C  s         
   243      6.715628  10 C  py              381     -6.715628  13 C  py        

 Vector   73  Occ=0.000000D+00  E= 3.202144D-01  Symmetry=t2g
              MO Center=  9.9D-12, -1.6D-11, -3.2D-11, r^2= 2.0D+01
   Bfn.  Coefficient  Atom+Function         Bfn.  Coefficient  Atom+Function  
  ----- ------------  ---------------      ----- ------------  ---------------
     3     16.434631   1 H  s               118     16.434631   6 H  s         
[...]
   53 Bend                    10    15    12                90.00000    0.00000
   54 Bend                    10    16    11                90.00000    0.00000
   55 Bend                    11    13    12                90.00000    0.00000
   56 Bend                    11    14    12                90.00000    0.00000
   57 Bend                    13     9    15                90.00000    0.00000
   58 Bend                    13     9    16                90.00000    0.00000
   59 Bend                    13    11    14                90.00000    0.00000
   60 Bend                    13    11    16                90.00000    0.00000
   61 Bend                    13    12    14                90.00000    0.00000
   62 Bend                    13    12    15                90.00000    0.00000
   63 Bend                    14    10    15                90.00000    0.00000
   64 Bend                    14    10    16                90.00000    0.00000
   65 Bend                    14    11    16                90.00000    0.00000
   66 Bend                    14    12    15                90.00000    0.00000
   67 Bend                    15     9    16                90.00000    0.00000
   68 Bend                    15    10    16                90.00000    0.00000
   69 Torsion                  1     9    13     5           0.00000    0.00000
   70 Torsion                  1     9    13    11        -135.00000    0.00000
   71 Torsion                  1     9    13    12         135.00000   -0.00000
   72 Torsion                  1     9    15     7           0.00000    0.00000
   73 Torsion                  1     9    15    10         135.00000   -0.00000
   74 Torsion                  1     9    15    12        -135.00000    0.00000
   75 Torsion                  1     9    16     8           0.00000    0.00000
   76 Torsion                  1     9    16    10        -135.00000    0.00000
   77 Torsion                  1     9    16    11         135.00000   -0.00000
   78 Torsion                  2    10    14     6           0.00000    0.00000
   79 Torsion                  2    10    14    11         135.00000   -0.00000
   80 Torsion                  2    10    14    12        -135.00000    0.00000
   81 Torsion                  2    10    15     7           0.00000    0.00000
   82 Torsion                  2    10    15     9        -135.00000    0.00000
   83 Torsion                  2    10    15    12         135.00000   -0.00000
   84 Torsion                  2    10    16     8           0.00000    0.00000
   85 Torsion                  2    10    16     9         135.00000   -0.00000
   86 Torsion                  2    10    16    11        -135.00000    0.00000
   87 Torsion                  3    11    13     5           0.00000    0.00000
   88 Torsion                  3    11    13     9         135.00000   -0.00000
   89 Torsion                  3    11    13    12        -135.00000    0.00000
   90 Torsion                  3    11    14     6           0.00000    0.00000
   91 Torsion                  3    11    14    10        -135.00000    0.00000
   92 Torsion                  3    11    14    12         135.00000   -0.00000
   93 Torsion                  3    11    16     8           0.00000    0.00000
   94 Torsion                  3    11    16     9        -135.00000    0.00000
   95 Torsion                  3    11    16    10         135.00000   -0.00000
   96 Torsion                  4    12    13     5           0.00000    0.00000
   97 Torsion                  4    12    13     9        -135.00000    0.00000
   98 Torsion                  4    12    13    11         135.00000   -0.00000
   99 Torsion                  4    12    14     6           0.00000    0.00000
  100 Torsion                  4    12    14    10         135.00000   -0.00000
  101 Torsion                  4    12    14    11        -135.00000    0.00000
  102 Torsion                  4    12    15     7           0.00000    0.00000
  103 Torsion                  4    12    15     9         135.00000   -0.00000
  104 Torsion                  4    12    15    10        -135.00000    0.00000
  105 Torsion                  5    13     9    15        -135.00000    0.00000
  106 Torsion                  5    13     9    16         135.00000   -0.00000
  107 Torsion                  5    13    11    14         135.00000   -0.00000
  108 Torsion                  5    13    11    16        -135.00000    0.00000
  109 Torsion                  5    13    12    14        -135.00000    0.00000
  110 Torsion                  5    13    12    15         135.00000   -0.00000
  111 Torsion                  6    14    10    15         135.00000   -0.00000
  112 Torsion                  6    14    10    16        -135.00000    0.00000
  113 Torsion                  6    14    11    13        -135.00000    0.00000
  114 Torsion                  6    14    11    16         135.00000   -0.00000
  115 Torsion                  6    14    12    13         135.00000   -0.00000
  116 Torsion                  6    14    12    15        -135.00000    0.00000
  117 Torsion                  7    15     9    13         135.00000   -0.00000
  118 Torsion                  7    15     9    16        -135.00000    0.00000
  119 Torsion                  7    15    10    14        -135.00000    0.00000
  120 Torsion                  7    15    10    16         135.00000   -0.00000
  121 Torsion                  7    15    12    13        -135.00000    0.00000
  122 Torsion                  7    15    12    14         135.00000   -0.00000
  123 Torsion                  8    16     9    13        -135.00000    0.00000
  124 Torsion                  8    16     9    15         135.00000   -0.00000
  125 Torsion                  8    16    10    14         135.00000   -0.00000
  126 Torsion                  8    16    10    15        -135.00000    0.00000
  127 Torsion                  8    16    11    13         135.00000   -0.00000
  128 Torsion                  8    16    11    14        -135.00000    0.00000
  129 Torsion                  9    13    11    14         -90.00000    0.00000
  130 Torsion                  9    13    11    16           0.00000    0.00000
  131 Torsion                  9    13    12    14          90.00000    0.00000
  132 Torsion                  9    13    12    15           0.00000    0.00000
  133 Torsion                  9    15    10    14          90.00000    0.00000
  134 Torsion                  9    15    10    16           0.00000    0.00000
  135 Torsion                  9    15    12    13           0.00000    0.00000
  136 Torsion                  9    15    12    14         -90.00000    0.00000
  137 Torsion                  9    16    10    14         -90.00000    0.00000
  138 Torsion                  9    16    10    15           0.00000    0.00000
  139 Torsion                  9    16    11    13           0.00000    0.00000
  140 Torsion                  9    16    11    14          90.00000    0.00000
  141 Torsion                 10    14    11    13          90.00000    0.00000
  142 Torsion                 10    14    11    16           0.00000    0.00000
  143 Torsion                 10    14    12    13         -90.00000    0.00000
  144 Torsion                 10    14    12    15           0.00000    0.00000
  145 Torsion                 10    15     9    13         -90.00000    0.00000
  146 Torsion                 10    15     9    16           0.00000    0.00000
  147 Torsion                 10    15    12    13          90.00000    0.00000
  148 Torsion                 10    15    12    14           0.00000    0.00000
  149 Torsion                 10    16     9    13          90.00000    0.00000
  150 Torsion                 10    16     9    15           0.00000    0.00000
  151 Torsion                 10    16    11    13         -90.00000    0.00000
  152 Torsion                 10    16    11    14           0.00000    0.00000
  153 Torsion                 11    13     9    15          90.00000    0.00000
  154 Torsion                 11    13     9    16           0.00000    0.00000
  155 Torsion                 11    13    12    14           0.00000    0.00000
  156 Torsion                 11    13    12    15         -90.00000    0.00000
  157 Torsion                 11    14    10    15         -90.00000    0.00000
  158 Torsion                 11    14    10    16           0.00000    0.00000
  159 Torsion                 11    14    12    13           0.00000    0.00000
  160 Torsion                 11    14    12    15          90.00000    0.00000
  161 Torsion                 11    16     9    13           0.00000    0.00000
  162 Torsion                 11    16     9    15         -90.00000    0.00000
  163 Torsion                 11    16    10    14           0.00000    0.00000
  164 Torsion                 11    16    10    15          90.00000    0.00000
  165 Torsion                 12    13     9    15           0.00000    0.00000
  166 Torsion                 12    13     9    16         -90.00000    0.00000
  167 Torsion                 12    13    11    14           0.00000    0.00000
  168 Torsion                 12    13    11    16          90.00000    0.00000
  169 Torsion                 12    14    10    15           0.00000    0.00000
  170 Torsion                 12    14    10    16          90.00000    0.00000
  171 Torsion                 12    14    11    13           0.00000    0.00000
  172 Torsion                 12    14    11    16         -90.00000    0.00000
  173 Torsion                 12    15     9    13           0.00000    0.00000
  174 Torsion                 12    15     9    16          90.00000    0.00000
  175 Torsion                 12    15    10    14           0.00000    0.00000
  176 Torsion                 12    15    10    16         -90.00000    0.00000

 ==============================================================================
                                internuclear distances
 ------------------------------------------------------------------------------
       center one      |      center two      | atomic units |  angstroms
 ------------------------------------------------------------------------------
    9 C                |   1 H                |     2.05150  |     1.08560
   10 C                |   2 H                |     2.05150  |     1.08560
   11 C                |   3 H                |     2.05150  |     1.08560
   12 C                |   4 H                |     2.05150  |     1.08560
   13 C                |   5 H                |     2.05150  |     1.08560
   13 C                |   9 C                |     2.96078  |     1.56678
   13 C                |  11 C                |     2.96078  |     1.56678
   13 C                |  12 C                |     2.96078  |     1.56678
   14 C                |   6 H                |     2.05150  |     1.08560
   14 C                |  10 C                |     2.96078  |     1.56678
   14 C                |  11 C                |     2.96078  |     1.56678
   14 C                |  12 C                |     2.96078  |     1.56678
   15 C                |   7 H                |     2.05150  |     1.08560
   15 C                |   9 C                |     2.96078  |     1.56678
   15 C                |  10 C                |     2.96078  |     1.56678
   15 C                |  12 C                |     2.96078  |     1.56678
   16 C                |   8 H                |     2.05150  |     1.08560
   16 C                |   9 C                |     2.96078  |     1.56678
   16 C                |  10 C                |     2.96078  |     1.56678
   16 C                |  11 C                |     2.96078  |     1.56678
 ------------------------------------------------------------------------------
                         number of included internuclear distances:         20
 ==============================================================================



 ==============================================================================
                                 internuclear angles
 ------------------------------------------------------------------------------
        center 1       |       center 2       |       center 3       |  degrees
 ------------------------------------------------------------------------------
    1 H                |   9 C                |  13 C                |   125.26
    1 H                |   9 C                |  15 C                |   125.26
    1 H                |   9 C                |  16 C                |   125.26
   13 C                |   9 C                |  15 C                |    90.00
   13 C                |   9 C                |  16 C                |    90.00
   15 C                |   9 C                |  16 C                |    90.00
    2 H                |  10 C                |  14 C                |   125.26
    2 H                |  10 C                |  15 C                |   125.26
    2 H                |  10 C                |  16 C                |   125.26
   14 C                |  10 C                |  15 C                |    90.00
   14 C                |  10 C                |  16 C                |    90.00
   15 C                |  10 C                |  16 C                |    90.00
    3 H                |  11 C                |  13 C                |   125.26
    3 H                |  11 C                |  14 C                |   125.26
    3 H                |  11 C                |  16 C                |   125.26
   13 C                |  11 C                |  14 C                |    90.00
   13 C                |  11 C                |  16 C                |    90.00
   14 C                |  11 C                |  16 C                |    90.00
    4 H                |  12 C                |  13 C                |   125.26
    4 H                |  12 C                |  14 C                |   125.26
    4 H                |  12 C                |  15 C                |   125.26
   13 C                |  12 C                |  14 C                |    90.00
   13 C                |  12 C                |  15 C                |    90.00
   14 C                |  12 C                |  15 C                |    90.00
    5 H                |  13 C                |   9 C                |   125.26
    5 H                |  13 C                |  11 C                |   125.26
    5 H                |  13 C                |  12 C                |   125.26
    9 C                |  13 C                |  11 C                |    90.00
    9 C                |  13 C                |  12 C                |    90.00
   11 C                |  13 C                |  12 C                |    90.00
    6 H                |  14 C                |  10 C                |   125.26
    6 H                |  14 C                |  11 C                |   125.26
    6 H                |  14 C                |  12 C                |   125.26
   10 C                |  14 C                |  11 C                |    90.00
   10 C                |  14 C                |  12 C                |    90.00
   11 C                |  14 C                |  12 C                |    90.00
    7 H                |  15 C                |   9 C                |   125.26
    7 H                |  15 C                |  10 C                |   125.26
    7 H                |  15 C                |  12 C                |   125.26
    9 C                |  15 C                |  10 C                |    90.00
    9 C                |  15 C                |  12 C                |    90.00
   10 C                |  15 C                |  12 C                |    90.00
    8 H                |  16 C                |   9 C                |   125.26
    8 H                |  16 C                |  10 C                |   125.26
    8 H                |  16 C                |  11 C                |   125.26
    9 C                |  16 C                |  10 C                |    90.00
    9 C                |  16 C                |  11 C                |    90.00
   10 C                |  16 C                |  11 C                |    90.00
 ------------------------------------------------------------------------------
                            number of included internuclear angles:         48
 ==============================================================================




 Task  times  cpu:    15429.9s     wall:    13184.9s
 Summary of allocated global arrays
-----------------------------------
  No active global arrays



                         GA Statistics for process    0
                         ------------------------------

       create   destroy   get      put      acc     scatter   gather  read&inc
calls: 2652     2652     5.72e+07 5.09e+06 2.93e+07    0        0     1.24e+05 
number of processes/call 1.00e+00 1.00e+00 1.00e+00 0.00e+00 0.00e+00
bytes total:             9.04e+10 1.39e+11 2.22e+10 0.00e+00 0.00e+00 9.89e+05
bytes remote:            0.00e+00 0.00e+00 0.00e+00 0.00e+00 0.00e+00 0.00e+00
Max memory consumed for GA by this process: 209693864 bytes
MA_summarize_allocated_blocks: starting scan ...
MA_summarize_allocated_blocks: scan completed: 0 heap blocks, 0 stack blocks
MA usage statistics:

	allocation statistics:
					      heap	     stack
					      ----	     -----
	current number of blocks	         0	         0
	maximum number of blocks	        25	        36
	current total bytes		         0	         0
	maximum total bytes		    623136	 111913624
	maximum total K-bytes		       624	    111914
	maximum total M-bytes		         1	       112


                                NWChem Input Module
                                -------------------





                                     CITATION
                                     --------
                Please cite the following reference when publishing
                           results obtained with NWChem:

                 M. Valiev, E.J. Bylaska, N. Govind, K. Kowalski,
              T.P. Straatsma, H.J.J. van Dam, D. Wang, J. Nieplocha,
                        E. Apra, T.L. Windus, W.A. de Jong
                 "NWChem: a comprehensive and scalable open-source
                  solution for large scale molecular simulations"
                      Comput. Phys. Commun. 181, 1477 (2010)
                           doi:10.1016/j.cpc.2010.04.018

                                      AUTHORS
                                      -------
          E. Apra, E. J. Bylaska, W. A. de Jong, N. Govind, K. Kowalski,
       T. P. Straatsma, M. Valiev, H. J. J. van Dam, D. Wang, T. L. Windus,
        J. Hammond, J. Autschbach, K. Bhaskaran-Nair, J. Brabec, K. Lopata,
       S. A. Fischer, S. Krishnamoorthy, W. Ma, M. Klemm, O. Villa, Y. Chen,
    V. Anisimov, F. Aquino, S. Hirata, M. T. Hackler, T. Risthaus, M. Malagoli,
       A. Marenich, A. Otero-de-la-Roza, J. Mullin, P. Nichols, R. Peverati,
     J. Pittner, Y. Zhao, P.-D. Fan, A. Fonari, M. Williamson, R. J. Harrison,
       J. R. Rehr, M. Dupuis, D. Silverstein, D. M. A. Smith, J. Nieplocha,
        V. Tipparaju, M. Krishnan, B. E. Van Kuiken, A. Vazquez-Mayagoitia,
        L. Jensen, M. Swart, Q. Wu, T. Van Voorhis, A. A. Auer, M. Nooijen,
      L. D. Crosby, E. Brown, G. Cisneros, G. I. Fann, H. Fruchtl, J. Garza,
        K. Hirao, R. A. Kendall, J. A. Nichols, K. Tsemekhman, K. Wolinski,
     J. Anchell, D. E. Bernholdt, P. Borowski, T. Clark, D. Clerc, H. Dachsel,
   M. J. O. Deegan, K. Dyall, D. Elwood, E. Glendening, M. Gutowski, A. C. Hess,
         J. Jaffe, B. G. Johnson, J. Ju, R. Kobayashi, R. Kutteh, Z. Lin,
   R. Littlefield, X. Long, B. Meng, T. Nakajima, S. Niu, L. Pollack, M. Rosing,
   K. Glaesemann, G. Sandrone, M. Stave, H. Taylor, G. Thomas, J. H. van Lenthe,
                               A. T. Wong, Z. Zhang.

 Total times  cpu:    15430.1s     wall:    13185.0s
