
                                 *****************
                                 * O   R   C   A *
                                 *****************

           --- An Ab Initio, DFT and Semiempirical electronic structure package ---

                  #######################################################
                  #                        -***-                        #
                  #  Department of molecular theory and spectroscopy    #
                  #              Directorship: Frank Neese              #
                  # Max Planck Institute for Chemical Energy Conversion #
                  #                  D-45470 Muelheim/Ruhr              #
                  #                       Germany                       #
                  #                                                     #
                  #                  All rights reserved                #
                  #                        -***-                        #
                  #######################################################


                         Program Version 4.0.0 -  RELEASE  -


 With contributions from (in alphabetic order):
   Daniel Aravena         : Magnetic Properties
   Michael Atanasov       : Ab Initio Ligand Field Theory
   Ute Becker             : Parallelization
   Martin Brehm           : Molecular dynamics
   Dmytro Bykov           : SCF Hessian
   Vijay G. Chilkuri      : MRCI spin determinant printing
   Dipayan Datta          : RHF DLPNO-CCSD density
   Achintya Kumar Dutta   : EOM-CC, STEOM-CC
   Dmitry Ganyushin       : Spin-Orbit,Spin-Spin,Magnetic field MRCI
   Yang Guo               : DLPNO-NEVPT2, CIM, IAO-localization
   Andreas Hansen         : Spin unrestricted coupled pair/coupled cluster methods
   Lee Huntington         : MR-EOM, pCC
   Robert Izsak           : Overlap fitted RIJCOSX, COSX-SCS-MP3, EOM
   Christian Kollmar      : KDIIS, OOCD, Brueckner-CCSD(T), CCSD density
   Simone Kossmann        : Meta GGA functionals, TD-DFT gradient, OOMP2, MP2 Hessian
   Martin Krupicka        : AUTO-CI
   Dagmar Lenk            : GEPOL surface
   Dimitrios Liakos       : Extrapolation schemes; parallel MDCI
   Dimitrios Manganas     : ROCIS; embedding schemes
   Dimitrios Pantazis     : SARC Basis sets
   Taras Petrenko         : DFT Hessian,TD-DFT gradient, ASA, ECA, R-Raman, ABS, FL, XAS/XES, NRVS
   Peter Pinski           : DLPNO-MP2
   Christoph Reimann      : Effective Core Potentials
   Marius Retegan         : Local ZFS, SOC
   Christoph Riplinger    : Optimizer, TS searches, QM/MM, DLPNO-CCSD(T), (RO)-DLPNO pert. Triples
   Tobias Risthaus        : Range-separated hybrids, TD-DFT gradient, RPA, STAB
   Michael Roemelt        : Restricted open shell CIS
   Masaaki Saitow         : Open-shell DLPNO
   Barbara Sandhoefer     : DKH picture change effects
   Kantharuban Sivalingam : CASSCF convergence, NEVPT2, FIC-MRCI
   Georgi Stoychev        : AutoAux
   Boris Wezisla          : Elementary symmetry handling
   Frank Wennmohs         : Technical directorship


 We gratefully acknowledge several colleagues who have allowed us to
 interface, adapt or use parts of their codes:
   Stefan Grimme, W. Hujo, H. Kruse,             : VdW corrections, initial TS optimization,
                  C. Bannwarth                     DFT functionals, gCP, sTDA/sTD-DF
   Ed Valeev                                     : LibInt (2-el integral package), F12 methods
   Garnet Chan, S. Sharma, J. Yang, R. Olivares  : DMRG
   Ulf Ekstrom                                   : XCFun DFT Library
   Mihaly Kallay                                 : mrcc  (arbitrary order and MRCC methods)
   Jiri Pittner, Ondrej Demel                    : Mk-CCSD
   Frank Weinhold                                : gennbo (NPA and NBO analysis)
   Christopher J. Cramer and Donald G. Truhlar   : smd solvation model


 Your calculation uses the libint2 library for the computation of 2-el integrals
 For citations please refer to: http://libint.valeyev.net

 This ORCA versions uses:
   CBLAS   interface :  Fast vector & matrix operations
   LAPACKE interface :  Fast linear algebra routines
   SCALAPACK package :  Parallel linear algebra routines


Your calculation utilizes the basis: cc-pVTZ 
       H, B-Ne : Obtained from the ccRepo (grant-hill.group.shef.ac.uk/ccrepo) Feb. 2017
                 T. H. Dunning, Jr., J. Chem. Phys. 90, 1007 (1989)
            He : Obtained from the ccRepo (grant-hill.group.shef.ac.uk/ccrepo) Feb. 2017
                 D. E. Woon, T. H. Dunning, Jr., J. Chem. Phys. 100, 2975 (1994)
  Li-Be, Na-Mg : Obtained from the ccRepo (grant-hill.group.shef.ac.uk/ccrepo) Feb. 2017
                 B. P. Prascher, D. E. Woon, K. A. Peterson, T. H. Dunning, Jr., A. K. Wilson, Theor. Chem. Acc. 128, 69 (2011)
         Al-Ar : Obtained from the ccRepo (grant-hill.group.shef.ac.uk/ccrepo) Feb. 2017
                 D. E. Woon, T. H. Dunning, Jr., J. Chem. Phys. 98, 1358 (1993)
            Ca : Obtained from the Peterson Research Group Website (tyr0.chem.wsu.edu/~kipeters) Feb. 2017
                 J. Koput, K. A. Peterson, J. Phys. Chem. 106, 9595 (2002)
         Sc-Zn : Obtained from the ccRepo (grant-hill.group.shef.ac.uk/ccrepo) Feb. 2017
                 N. B. Balabanov, K. A. Peterson, J. Chem. Phys. 123, 064107 (2005)
                 N. B. Balabanov, K. A. Peterson, J. Chem. Phys. 125, 074110 (2006)
         Ga-Kr : Obtained from the ccRepo (grant-hill.group.shef.ac.uk/ccrepo) Feb. 2017
                 A. K. Wilson, D. E. Woon, K. A. Peterson, T. H. Dunning, Jr., J. Chem. Phys. 110, 7667 (1999)
             Y : Obtained from the ccRepo (grant-hill.group.shef.ac.uk/ccrepo) Feb. 2017
                 K. A. Peterson, D. Figgen, M. Dolg, H. Stoll, J. Chem. Phys. 126, 124101 (2007)
        Ag, Au : Obtained from the Peterson Research Group Website (tyr0.chem.wsu.edu/~kipeters) Feb. 2017
                 K. A. Peterson, C. Puzzarini, Theor. Chem. Acc. 114, 283 (2005)

Your calculation utilizes the auxiliary basis: cc-pVTZ/C 
  Obtained from the EMSL Basis Set Exchange (bse.pnl.gov) Feb. 2017
  H-He, B-F, Al-Ar, Ga-Kr : F. Weigend, A. Kohn, C. Hattig, J. Chem. Phys. 116, 3175 (2002)
             Li-Be, Na-Mg : C. Haettig, Phys. Chem. Chem. Phys. 7, 59 (2005)
                       Ne : C. Haettig, Phys. Chem. Chem. Phys. 7, 59 (2005)
                            F. Weigend, A. Kohn, C. Hattig, J. Chem. Phys. 116, 3175 (2002)
                    Sc-Zn : J. G. Hill, J. A. Platts, J. Chem. Phys. 128, 044104 (2008)

================================================================================
                                        WARNINGS
                       Please study these warnings very carefully!
================================================================================


WARNING: Geometry optimizations can change the point-group symmetry!

Warning: TCutStore was < 0. Adjusted to Thresh (uncritical)

WARNING: The frozen-core approximation for MP2-gradient calculations is turned on by default.

WARNING: Geometry Optimization
  ===> : Switching off AutoStart
         For restart on a previous wavefunction, please use MOREAD

WARNING: Post HF methods need fully converged wavefunctions
  ===> : Setting SCFConvForced true
         You can overwrite this default with %scf ConvForced false 


INFO   : the flag for use of LIBINT has been found!

================================================================================
                                       INPUT FILE
================================================================================
NAME = /home/vladimir/Quantum_Chemistry/ORCA/C8H8/cubane/optimize/MP2/cc-pVTZ-RI/./cubane.inp
|  1> # ================================================================
|  2> # Orca input file for cubane RI-MP2/cc-pVTZ geometry optimization
|  3> # ================================================================
|  4> ! RHF RI-MP2 cc-pVTZ cc-pVTZ/C TightSCF TightOPT UseSym
|  5> ! PAL4
|  6> 
|  7> * xyz 0 1
|  8>   H      -1.410     -1.410     -1.410
|  9>   C      -0.783     -0.783     -0.783
| 10>   H      -1.410     -1.410      1.410
| 11>   C      -0.783     -0.783      0.783
| 12>   H      -1.410      1.410     -1.410
| 13>   C      -0.783      0.783     -0.783
| 14>   H       1.410     -1.410     -1.410
| 15>   C       0.783     -0.783     -0.783
| 16>   H      -1.410      1.410      1.410
| 17>   C      -0.783      0.783      0.783
| 18>   H       1.410     -1.410      1.410
| 19>   C       0.783     -0.783      0.783
| 20>   H       1.410      1.410     -1.410
| 21>   C       0.783      0.783     -0.783
| 22>   H       1.410      1.410      1.410
| 23>   C       0.783      0.783      0.783
| 24> *
| 25> 
| 26>                          ****END OF INPUT****
================================================================================

------------------------------------------------------------------------------
                            SYMMETRY HANDLING SETUP
------------------------------------------------------------------------------

------------------
SYMMETRY DETECTION
------------------
Preparing Data                    ... done
Detection Threshold:    SymThresh ... 1.0000e-04

Point Group will now be determined:
Moving molecule to center of mass ... done

POINT GROUP                       ... Oh

The coordinates will now be cleaned:
Moving to standard coord frame    ... done
(Changed one of the main axes to z and another to x)
Structure cleanup requested       ... yes
Selected point group              ... Oh
Cleaning Tolerance      SymThresh ... 1.0000e-04

Some missing point group data is constructed:
Constructing symmetry operations  ... done
Creating atom transfer table      ... done
Creating asymmetric unit          ... done

Cleaning coordinates              ... done

-----------------------------------------------
SYMMETRY-PERFECTED CARTESIAN COORDINATES (A.U.)
-----------------------------------------------
   0 H    -2.66451385   2.66451385   2.66451385 
   1 C    -1.47965556   1.47965556   1.47965556 
   2 H    -2.66451385  -2.66451385   2.66451385 
   3 C    -1.47965556  -1.47965556   1.47965556 
   4 H     2.66451385   2.66451385   2.66451385 
   5 C     1.47965556   1.47965556   1.47965556 
   6 H    -2.66451385   2.66451385  -2.66451385 
   7 C    -1.47965556   1.47965556  -1.47965556 
   8 H     2.66451385  -2.66451385   2.66451385 
   9 C     1.47965556  -1.47965556   1.47965556 
  10 H    -2.66451385  -2.66451385  -2.66451385 
  11 C    -1.47965556  -1.47965556  -1.47965556 
  12 H     2.66451385   2.66451385  -2.66451385 
  13 C     1.47965556   1.47965556  -1.47965556 
  14 H     2.66451385  -2.66451385  -2.66451385 
  15 C     1.47965556  -1.47965556  -1.47965556 

------------------
SYMMETRY REDUCTION
------------------
ORCA supports only abelian point groups.
It is now checked, if the determined point group is supported:
Point Group ( Oh    ) is          ... NOT supported
Reducing to abelian subgroup      ... D2h

(Re)building abelian point group:
Creating Character Table          ... done
Making direct product table       ... done
Constructing symmetry operations  ... done
Creating atom transfer table      ... done
Creating asymmetric unit          ... done

----------------------
ASYMMETRIC UNIT IN D2h
----------------------
  #  AT     MASS              COORDS (A.U.)             BAS
   0 H    1.0080  -2.66451385   2.66451385   2.66451385   0
   1 C   12.0110  -1.47965556   1.47965556   1.47965556   0

----------------------
SYMMETRY ADAPTED BASIS
----------------------
The coefficients for the symmetry adapted linear combinations (SALCS)
of basis functions will now be computed:
Number of basis functions         ...   352
Preparing memory                  ... done
Constructing Gamma(red)           ... done
Reducing Gamma(red)               ... done
Constructing SALCs                ... done
Checking SALC integrity           ... nothing suspicious
Normalizing SALCs                 ... done

Storing the symmetry object:
Symmetry file                     ... /home/vladimir/Quantum_Chemistry/ORCA/C8H8/cubane/optimize/MP2/cc-pVTZ-RI/./cubane.sym.tmp
Writing symmetry information      ... done

                       *****************************
                       * Geometry Optimization Run *
                       *****************************

Geometry optimization settings:
Update method            Update   .... BFGS
Choice of coordinates    CoordSys .... Redundant Internals
Initial Hessian          InHess   .... Almoef's Model

Convergence Tolerances:
Energy Change            TolE     ....  1.0000e-06 Eh
Max. Gradient            TolMAXG  ....  1.0000e-04 Eh/bohr
RMS Gradient             TolRMSG  ....  3.0000e-05 Eh/bohr
Max. Displacement        TolMAXD  ....  1.0000e-03 bohr
RMS Displacement         TolRMSD  ....  6.0000e-04 bohr

------------------------------------------------------------------------------
                        ORCA OPTIMIZATION COORDINATE SETUP
------------------------------------------------------------------------------

The optimization will be done in new redundant internal coordinates
Making redundant internal coordinates   ...  (new redundants) done
Evaluating the initial hessian          ...  (Almloef) done
Evaluating the coordinates              ...  done
Calculating the B-matrix                .... done
Calculating the G-matrix                .... done
Diagonalizing the G-matrix              .... done
The first mode is                       ....  134
The number of degrees of freedom        ....   42

    -----------------------------------------------------------------
                    Redundant Internal Coordinates


    -----------------------------------------------------------------
         Definition                    Initial Value    Approx d2E/dq
    -----------------------------------------------------------------
      1. B(C   1,H   0)                  1.0860         0.365436   
      2. B(C   3,H   2)                  1.0860         0.365436   
      3. B(C   3,C   1)                  1.5660         0.327297   
      4. B(C   5,H   4)                  1.0860         0.365436   
      5. B(C   5,C   1)                  1.5660         0.327297   
      6. B(C   7,H   6)                  1.0860         0.365436   
      7. B(C   7,C   1)                  1.5660         0.327297   
      8. B(C   9,H   8)                  1.0860         0.365436   
      9. B(C   9,C   5)                  1.5660         0.327297   
     10. B(C   9,C   3)                  1.5660         0.327297   
     11. B(C  11,H  10)                  1.0860         0.365436   
     12. B(C  11,C   7)                  1.5660         0.327297   
     13. B(C  11,C   3)                  1.5660         0.327297   
     14. B(C  13,C   7)                  1.5660         0.327297   
     15. B(C  13,C   5)                  1.5660         0.327297   
     16. B(C  13,H  12)                  1.0860         0.365436   
     17. B(C  15,H  14)                  1.0860         0.365436   
     18. B(C  15,C  13)                  1.5660         0.327297   
     19. B(C  15,C  11)                  1.5660         0.327297   
     20. B(C  15,C   9)                  1.5660         0.327297   
     21. A(H   0,C   1,C   3)          125.2644         0.318141   
     22. A(H   0,C   1,C   7)          125.2644         0.318141   
     23. A(C   3,C   1,C   5)           90.0000         0.347409   
     24. A(H   0,C   1,C   5)          125.2644         0.318141   
     25. A(C   5,C   1,C   7)           90.0000         0.347409   
     26. A(C   3,C   1,C   7)           90.0000         0.347409   
     27. A(C   1,C   3,C  11)           90.0000         0.347409   
     28. A(C   1,C   3,C   9)           90.0000         0.347409   
     29. A(C   1,C   3,H   2)          125.2644         0.318141   
     30. A(H   2,C   3,C  11)          125.2644         0.318141   
     31. A(C   9,C   3,C  11)           90.0000         0.347409   
     32. A(H   2,C   3,C   9)          125.2644         0.318141   
     33. A(H   4,C   5,C  13)          125.2644         0.318141   
     34. A(C   9,C   5,C  13)           90.0000         0.347409   
     35. A(H   4,C   5,C   9)          125.2644         0.318141   
     36. A(C   1,C   5,C  13)           90.0000         0.347409   
     37. A(C   1,C   5,C   9)           90.0000         0.347409   
     38. A(C   1,C   5,H   4)          125.2644         0.318141   
     39. A(C  11,C   7,C  13)           90.0000         0.347409   
     40. A(C   1,C   7,C  13)           90.0000         0.347409   
     41. A(H   6,C   7,C  11)          125.2644         0.318141   
     42. A(C   1,C   7,C  11)           90.0000         0.347409   
     43. A(C   1,C   7,H   6)          125.2644         0.318141   
     44. A(H   6,C   7,C  13)          125.2644         0.318141   
     45. A(C   3,C   9,H   8)          125.2644         0.318141   
     46. A(C   3,C   9,C   5)           90.0000         0.347409   
     47. A(H   8,C   9,C  15)          125.2644         0.318141   
     48. A(C   5,C   9,C  15)           90.0000         0.347409   
     49. A(C   3,C   9,C  15)           90.0000         0.347409   
     50. A(C   5,C   9,H   8)          125.2644         0.318141   
     51. A(C   7,C  11,H  10)          125.2644         0.318141   
     52. A(C   3,C  11,H  10)          125.2644         0.318141   
     53. A(C   3,C  11,C   7)           90.0000         0.347409   
     54. A(H  10,C  11,C  15)          125.2644         0.318141   
     55. A(C   7,C  11,C  15)           90.0000         0.347409   
     56. A(C   3,C  11,C  15)           90.0000         0.347409   
     57. A(C   5,C  13,C   7)           90.0000         0.347409   
     58. A(H  12,C  13,C  15)          125.2644         0.318141   
     59. A(C   7,C  13,C  15)           90.0000         0.347409   
     60. A(C   5,C  13,C  15)           90.0000         0.347409   
     61. A(C   7,C  13,H  12)          125.2644         0.318141   
     62. A(C   5,C  13,H  12)          125.2644         0.318141   
     63. A(C  13,C  15,H  14)          125.2644         0.318141   
     64. A(C  11,C  15,H  14)          125.2644         0.318141   
     65. A(C   9,C  15,H  14)          125.2644         0.318141   
     66. A(C  11,C  15,C  13)           90.0000         0.347409   
     67. A(C   9,C  15,C  13)           90.0000         0.347409   
     68. A(C   9,C  15,C  11)           90.0000         0.347409   
     69. D(C   9,C   3,C   1,C   5)      0.0000         0.008738   
     70. D(C  11,C   3,C   1,C   5)    -90.0000         0.008738   
     71. D(H   2,C   3,C   1,C   5)    135.0000         0.008738   
     72. D(H   2,C   3,C   1,C   7)   -135.0000         0.008738   
     73. D(C  11,C   3,C   1,C   7)      0.0000         0.008738   
     74. D(C   9,C   3,C   1,H   0)   -135.0000         0.008738   
     75. D(C   9,C   3,C   1,C   7)     90.0000         0.008738   
     76. D(H   2,C   3,C   1,H   0)      0.0000         0.008738   
     77. D(C  11,C   3,C   1,H   0)    135.0000         0.008738   
     78. D(H   4,C   5,C   1,C   3)   -135.0000         0.008738   
     79. D(H   4,C   5,C   1,C   7)    135.0000         0.008738   
     80. D(H   4,C   5,C   1,H   0)      0.0000         0.008738   
     81. D(C  13,C   5,C   1,C   3)     90.0000         0.008738   
     82. D(C   9,C   5,C   1,H   0)    135.0000         0.008738   
     83. D(C  13,C   5,C   1,C   7)      0.0000         0.008738   
     84. D(C   9,C   5,C   1,C   7)    -90.0000         0.008738   
     85. D(C  13,C   5,C   1,H   0)   -135.0000         0.008738   
     86. D(C   9,C   5,C   1,C   3)      0.0000         0.008738   
     87. D(C  11,C   7,C   1,C   5)     90.0000         0.008738   
     88. D(H   6,C   7,C   1,C   5)   -135.0000         0.008738   
     89. D(C  13,C   7,C   1,H   0)    135.0000         0.008738   
     90. D(C  11,C   7,C   1,C   3)      0.0000         0.008738   
     91. D(H   6,C   7,C   1,C   3)    135.0000         0.008738   
     92. D(C  13,C   7,C   1,C   3)    -90.0000         0.008738   
     93. D(H   6,C   7,C   1,H   0)      0.0000         0.008738   
     94. D(C  13,C   7,C   1,C   5)      0.0000         0.008738   
     95. D(C  11,C   7,C   1,H   0)   -135.0000         0.008738   
     96. D(C   5,C   9,C   3,C   1)      0.0000         0.008738   
     97. D(H   8,C   9,C   3,C   1)    135.0000         0.008738   
     98. D(C  15,C   9,C   5,C  13)      0.0000         0.008738   
     99. D(C  15,C   9,C   5,H   4)   -135.0000         0.008738   
    100. D(H   8,C   9,C   5,C  13)    135.0000         0.008738   
    101. D(H   8,C   9,C   5,H   4)      0.0000         0.008738   
    102. D(H   8,C   9,C   5,C   1)   -135.0000         0.008738   
    103. D(C   5,C   9,C   3,C  11)     90.0000         0.008738   
    104. D(C  15,C   9,C   3,H   2)    135.0000         0.008738   
    105. D(C   3,C   9,C   5,C   1)      0.0000         0.008738   
    106. D(C  15,C   9,C   3,C  11)      0.0000         0.008738   
    107. D(C   3,C   9,C   5,C  13)    -90.0000         0.008738   
    108. D(C  15,C   9,C   3,C   1)    -90.0000         0.008738   
    109. D(H   8,C   9,C   3,C  11)   -135.0000         0.008738   
    110. D(C  15,C   9,C   5,C   1)     90.0000         0.008738   
    111. D(H   8,C   9,C   3,H   2)      0.0000         0.008738   
    112. D(C   3,C   9,C   5,H   4)    135.0000         0.008738   
    113. D(C   5,C   9,C   3,H   2)   -135.0000         0.008738   
    114. D(C  15,C  11,C   7,H   6)    135.0000         0.008738   
    115. D(C  15,C  11,C   7,C   1)    -90.0000         0.008738   
    116. D(H  10,C  11,C   7,C  13)   -135.0000         0.008738   
    117. D(H  10,C  11,C   7,C   1)    135.0000         0.008738   
    118. D(C   3,C  11,C   7,C  13)     90.0000         0.008738   
    119. D(C   3,C  11,C   7,H   6)   -135.0000         0.008738   
    120. D(C   3,C  11,C   7,C   1)      0.0000         0.008738   
    121. D(C  15,C  11,C   3,C   9)      0.0000         0.008738   
    122. D(C  15,C  11,C   3,C   1)     90.0000         0.008738   
    123. D(H  10,C  11,C   3,C   1)   -135.0000         0.008738   
    124. D(C   7,C  11,C   3,C   9)    -90.0000         0.008738   
    125. D(C   7,C  11,C   3,H   2)    135.0000         0.008738   
    126. D(H  10,C  11,C   7,H   6)      0.0000         0.008738   
    127. D(C   7,C  11,C   3,C   1)      0.0000         0.008738   
    128. D(H  10,C  11,C   3,H   2)      0.0000         0.008738   
    129. D(H  10,C  11,C   3,C   9)    135.0000         0.008738   
    130. D(C  15,C  11,C   7,C  13)      0.0000         0.008738   
    131. D(C  15,C  11,C   3,H   2)   -135.0000         0.008738   
    132. D(C  15,C  13,C   7,C  11)      0.0000         0.008738   
    133. D(C  15,C  13,C   7,H   6)   -135.0000         0.008738   
    134. D(H  12,C  13,C   7,C  11)    135.0000         0.008738   
    135. D(H  12,C  13,C   7,H   6)      0.0000         0.008738   
    136. D(H  12,C  13,C   7,C   1)   -135.0000         0.008738   
    137. D(C   5,C  13,C   7,H   6)    135.0000         0.008738   
    138. D(C   5,C  13,C   7,C   1)      0.0000         0.008738   
    139. D(C  15,C  13,C   5,C   9)      0.0000         0.008738   
    140. D(C  15,C  13,C   5,H   4)    135.0000         0.008738   
    141. D(C  15,C  13,C   5,C   1)    -90.0000         0.008738   
    142. D(C   5,C  13,C   7,C  11)    -90.0000         0.008738   
    143. D(H  12,C  13,C   5,C   9)   -135.0000         0.008738   
    144. D(H  12,C  13,C   5,H   4)      0.0000         0.008738   
    145. D(H  12,C  13,C   5,C   1)    135.0000         0.008738   
    146. D(C  15,C  13,C   7,C   1)     90.0000         0.008738   
    147. D(C   7,C  13,C   5,C   9)     90.0000         0.008738   
    148. D(C   7,C  13,C   5,H   4)   -135.0000         0.008738   
    149. D(C   7,C  13,C   5,C   1)      0.0000         0.008738   
    150. D(H  14,C  15,C  13,H  12)      0.0000         0.008738   
    151. D(H  14,C  15,C  13,C   5)   -135.0000         0.008738   
    152. D(C  11,C  15,C  13,H  12)   -135.0000         0.008738   
    153. D(C  11,C  15,C  13,C   7)      0.0000         0.008738   
    154. D(C   9,C  15,C  13,H  12)    135.0000         0.008738   
    155. D(C   9,C  15,C  13,C   7)    -90.0000         0.008738   
    156. D(C   9,C  15,C  13,C   5)      0.0000         0.008738   
    157. D(H  14,C  15,C  11,H  10)      0.0000         0.008738   
    158. D(H  14,C  15,C  11,C   7)   -135.0000         0.008738   
    159. D(H  14,C  15,C  11,C   3)    135.0000         0.008738   
    160. D(C  13,C  15,C  11,H  10)    135.0000         0.008738   
    161. D(C  13,C  15,C  11,C   7)      0.0000         0.008738   
    162. D(C  13,C  15,C  11,C   3)    -90.0000         0.008738   
    163. D(C   9,C  15,C  11,H  10)   -135.0000         0.008738   
    164. D(C   9,C  15,C  11,C   7)     90.0000         0.008738   
    165. D(C   9,C  15,C  11,C   3)      0.0000         0.008738   
    166. D(H  14,C  15,C   9,H   8)      0.0000         0.008738   
    167. D(H  14,C  15,C   9,C   5)    135.0000         0.008738   
    168. D(H  14,C  15,C   9,C   3)   -135.0000         0.008738   
    169. D(C  13,C  15,C   9,H   8)   -135.0000         0.008738   
    170. D(C  11,C  15,C  13,C   5)     90.0000         0.008738   
    171. D(C  13,C  15,C   9,C   5)      0.0000         0.008738   
    172. D(C  13,C  15,C   9,C   3)     90.0000         0.008738   
    173. D(C  11,C  15,C   9,H   8)    135.0000         0.008738   
    174. D(H  14,C  15,C  13,C   7)    135.0000         0.008738   
    175. D(C  11,C  15,C   9,C   5)    -90.0000         0.008738   
    176. D(C  11,C  15,C   9,C   3)      0.0000         0.008738   
    -----------------------------------------------------------------

Number of atoms                         .... 16
Number of degrees of freedom            .... 176

         *************************************************************
         *                GEOMETRY OPTIMIZATION CYCLE   1            *
         *************************************************************
---------------------------------
CARTESIAN COORDINATES (ANGSTROEM)
---------------------------------
  H     -1.410000    1.410000    1.410000
  C     -0.783000    0.783000    0.783000
  H     -1.410000   -1.410000    1.410000
  C     -0.783000   -0.783000    0.783000
  H      1.410000    1.410000    1.410000
  C      0.783000    0.783000    0.783000
  H     -1.410000    1.410000   -1.410000
  C     -0.783000    0.783000   -0.783000
  H      1.410000   -1.410000    1.410000
  C      0.783000   -0.783000    0.783000
  H     -1.410000   -1.410000   -1.410000
  C     -0.783000   -0.783000   -0.783000
  H      1.410000    1.410000   -1.410000
  C      0.783000    0.783000   -0.783000
  H      1.410000   -1.410000   -1.410000
  C      0.783000   -0.783000   -0.783000

----------------------------
CARTESIAN COORDINATES (A.U.)
----------------------------
  NO LB      ZA    FRAG     MASS         X           Y           Z
   0 H     1.0000    0     1.008   -2.664514    2.664514    2.664514
   1 C     6.0000    0    12.011   -1.479656    1.479656    1.479656
   2 H     1.0000    0     1.008   -2.664514   -2.664514    2.664514
   3 C     6.0000    0    12.011   -1.479656   -1.479656    1.479656
   4 H     1.0000    0     1.008    2.664514    2.664514    2.664514
   5 C     6.0000    0    12.011    1.479656    1.479656    1.479656
   6 H     1.0000    0     1.008   -2.664514    2.664514   -2.664514
   7 C     6.0000    0    12.011   -1.479656    1.479656   -1.479656
   8 H     1.0000    0     1.008    2.664514   -2.664514    2.664514
   9 C     6.0000    0    12.011    1.479656   -1.479656    1.479656
  10 H     1.0000    0     1.008   -2.664514   -2.664514   -2.664514
  11 C     6.0000    0    12.011   -1.479656   -1.479656   -1.479656
  12 H     1.0000    0     1.008    2.664514    2.664514   -2.664514
  13 C     6.0000    0    12.011    1.479656    1.479656   -1.479656
  14 H     1.0000    0     1.008    2.664514   -2.664514   -2.664514
  15 C     6.0000    0    12.011    1.479656   -1.479656   -1.479656

--------------------------------
INTERNAL COORDINATES (ANGSTROEM)
--------------------------------
 H      0   0   0     0.000000000000     0.00000000     0.00000000
 C      1   0   0     1.085995856346     0.00000000     0.00000000
 H      2   1   0     2.365482403232   103.24906464     0.00000000
 C      3   2   1     1.085995856346    32.72028528   180.00000085
 H      2   1   3     2.365482403232   103.24906464   240.00000000
 C      5   2   1     1.085995856346    32.72028528   180.00000000
 H      2   1   3     2.365482403232   103.24906464   120.00000000
 C      7   2   1     1.085995856346    32.72028528   180.00000000
 H      4   3   2     2.365482403232   103.24906464   120.00000000
 C      9   4   3     1.085995856346    32.72028528   180.00000000
 H      4   3   2     2.365482403232   103.24906464   240.00000000
 C     11   4   3     1.085995856346    32.72028528   180.00000000
 H      6   5   2     2.365482403232   103.24906464   120.00000000
 C     13   6   5     1.085995856346    32.72028528   180.00000000
 H     10   9   4     2.365482403232   103.24906464   240.00000000
 C     15  10   9     1.085995856346    32.72028528   180.00000000

---------------------------
INTERNAL COORDINATES (A.U.)
---------------------------
 H      0   0   0     0.000000000000     0.00000000     0.00000000
 C      1   0   0     2.052234751067     0.00000000     0.00000000
 H      2   1   0     4.470113916718   103.24906464     0.00000000
 C      3   2   1     2.052234751067    32.72028528   180.00000085
 H      2   1   3     4.470113916718   103.24906464   240.00000000
 C      5   2   1     2.052234751067    32.72028528   180.00000000
 H      2   1   3     4.470113916718   103.24906464   120.00000000
 C      7   2   1     2.052234751067    32.72028528   180.00000000
 H      4   3   2     4.470113916718   103.24906464   120.00000000
 C      9   4   3     2.052234751067    32.72028528   180.00000000
 H      4   3   2     4.470113916718   103.24906464   240.00000000
 C     11   4   3     2.052234751067    32.72028528   180.00000000
 H      6   5   2     4.470113916718   103.24906464   120.00000000
 C     13   6   5     2.052234751067    32.72028528   180.00000000
 H     10   9   4     4.470113916718   103.24906464   240.00000000
 C     15  10   9     2.052234751067    32.72028528   180.00000000

---------------------
BASIS SET INFORMATION
---------------------
There are 2 groups of distinct atoms

 Group   1 Type H   : 5s2p1d contracted to 3s2p1d pattern {311/11/1}
 Group   2 Type C   : 18s5p2d1f contracted to 4s3p2d1f pattern {8811/311/11/1}

Atom   0H    basis set group =>   1
Atom   1C    basis set group =>   2
Atom   2H    basis set group =>   1
Atom   3C    basis set group =>   2
Atom   4H    basis set group =>   1
Atom   5C    basis set group =>   2
Atom   6H    basis set group =>   1
Atom   7C    basis set group =>   2
Atom   8H    basis set group =>   1
Atom   9C    basis set group =>   2
Atom  10H    basis set group =>   1
Atom  11C    basis set group =>   2
Atom  12H    basis set group =>   1
Atom  13C    basis set group =>   2
Atom  14H    basis set group =>   1
Atom  15C    basis set group =>   2

INFORMATION: There is an auxiliary basis set but the global RI flag is NOT set

-------------------------------
AUXILIARY BASIS SET INFORMATION
-------------------------------
There are 2 groups of distinct atoms

 Group   1 Type H   : 4s3p2d1f contracted to 4s3p2d1f pattern {1111/111/11/1}
 Group   2 Type C   : 8s6p5d3f1g contracted to 8s6p5d3f1g pattern {11111111/111111/11111/111/1}

Atom   0H    basis set group =>   1
Atom   1C    basis set group =>   2
Atom   2H    basis set group =>   1
Atom   3C    basis set group =>   2
Atom   4H    basis set group =>   1
Atom   5C    basis set group =>   2
Atom   6H    basis set group =>   1
Atom   7C    basis set group =>   2
Atom   8H    basis set group =>   1
Atom   9C    basis set group =>   2
Atom  10H    basis set group =>   1
Atom  11C    basis set group =>   2
Atom  12H    basis set group =>   1
Atom  13C    basis set group =>   2
Atom  14H    basis set group =>   1
Atom  15C    basis set group =>   2


           ************************************************************
           *        Program running with 4 parallel MPI-processes     *
           *              working on a common directory               *
           ************************************************************
------------------------------------------------------------------------------
                           ORCA GTO INTEGRAL CALCULATION
------------------------------------------------------------------------------

                         BASIS SET STATISTICS AND STARTUP INFO

 # of primitive gaussian shells          ...  272
 # of primitive gaussian functions       ...  528
 # of contracted shells                  ...  128
 # of contracted basis functions         ...  352
 Highest angular momentum                ...    3
 Maximum contraction depth               ...    8
 Integral package used                   ... LIBINT
 Integral threshhold            Thresh   ...  2.500e-11
 Primitive cut-off              TCut     ...  2.500e-12


------------------------------ INTEGRAL EVALUATION ----------------------------


 * One electron integrals 
 Pre-screening matrix                    ... done
 Shell pair data                         ... done (   0.003 sec)



           ************************************************************
           *        Program running with 4 parallel MPI-processes     *
           *              working on a common directory               *
           ************************************************************
-------------------------------------------------------------------------------
                                 ORCA SCF
-------------------------------------------------------------------------------

------------
SCF SETTINGS
------------
Hamiltonian:
 Ab initio Hamiltonian  Method          .... Hartree-Fock(GTOs)


General Settings:
 Integral files         IntName         .... /home/vladimir/Quantum_Chemistry/ORCA/C8H8/cubane/optimize/MP2/cc-pVTZ-RI/./cubane
 Hartree-Fock type      HFTyp           .... RHF
 Total Charge           Charge          ....    0
 Multiplicity           Mult            ....    1
 Number of Electrons    NEL             ....   56
 Basis Dimension        Dim             ....  352
 Nuclear Repulsion      ENuc            ....    367.9479172697 Eh

 Symmetry handling      UseSym         .... ON
 Point group                           .... D2h
 Used point group                      .... D2h
 Number of irreps                      .... 8
   Irrep   Ag has   44 symmetry adapted basis functions (ofs=   0)
   Irrep  B1g has   44 symmetry adapted basis functions (ofs=  44)
   Irrep  B2g has   44 symmetry adapted basis functions (ofs=  88)
   Irrep  B3g has   44 symmetry adapted basis functions (ofs= 132)
   Irrep   Au has   44 symmetry adapted basis functions (ofs= 176)
   Irrep  B1u has   44 symmetry adapted basis functions (ofs= 220)
   Irrep  B2u has   44 symmetry adapted basis functions (ofs= 264)
   Irrep  B3u has   44 symmetry adapted basis functions (ofs= 308)

Convergence Acceleration:
 DIIS                   CNVDIIS         .... on
   Start iteration      DIISMaxIt       ....    12
   Startup error        DIISStart       ....  0.200000
   # of expansion vecs  DIISMaxEq       ....     5
   Bias factor          DIISBfac        ....   1.050
   Max. coefficient     DIISMaxC        ....  10.000
 Newton-Raphson         CNVNR           .... off
 SOSCF                  CNVSOSCF        .... on
   Start iteration      SOSCFMaxIt      ....   150
   Startup grad/error   SOSCFStart      ....  0.003300
 Level Shifting         CNVShift        .... on
   Level shift para.    LevelShift      ....    0.2500
   Turn off err/grad.   ShiftErr        ....    0.0010
 Zerner damping         CNVZerner       .... off
 Static damping         CNVDamp         .... on
   Fraction old density DampFac         ....    0.7000
   Max. Damping (<1)    DampMax         ....    0.9800
   Min. Damping (>=0)   DampMin         ....    0.0000
   Turn off err/grad.   DampErr         ....    0.1000
 Fernandez-Rico         CNVRico         .... off

SCF Procedure:
 Maximum # iterations   MaxIter         ....   125
 SCF integral mode      SCFMode         .... Direct
   Integral package                     .... LIBINT
 Reset frequeny         DirectResetFreq ....    20
 Integral Threshold     Thresh          ....  2.500e-11 Eh
 Primitive CutOff       TCut            ....  2.500e-12 Eh

Convergence Tolerance:
 Convergence Check Mode ConvCheckMode   .... Total+1el-Energy
 Convergence forced     ConvForced      .... 1
 Energy Change          TolE            ....  1.000e-08 Eh
 1-El. energy change                    ....  1.000e-05 Eh
 Orbital Gradient       TolG            ....  1.000e-05
 Orbital Rotation angle TolX            ....  1.000e-05
 DIIS Error             TolErr          ....  5.000e-07


Diagonalization of the overlap matrix:
Smallest eigenvalue                        ... 8.658e-06
Time for diagonalization                   ...    0.151 sec
Threshold for overlap eigenvalues          ... 1.000e-08
Number of eigenvalues below threshold      ... 0
Time for construction of square roots      ...    0.007 sec
Producing symmetrization matrix            ... done (   0.005 sec)
Total time needed                          ...    0.163 sec

-------------------
DFT GRID GENERATION
-------------------

General Integration Accuracy     IntAcc      ...  4.340
Radial Grid Type                 RadialGrid  ... Gauss-Chebyshev
Angular Grid (max. acc.)         AngularGrid ... Lebedev-110
Angular grid pruning method      GridPruning ... 3 (G Style)
Weight generation scheme         WeightScheme... Becke
Basis function cutoff            BFCut       ...    1.0000e-11
Integration weight cutoff        WCut        ...    1.0000e-14
Grids for H and He will be reduced by one unit

# of grid points (after initial pruning)     ...  19600 (   0.0 sec)
# of grid points (after weights+screening)   ...  17576 (   0.0 sec)
nearest neighbour list constructed           ...    0.0 sec
Grid point re-assignment to atoms done       ...    0.0 sec
Grid point division into batches done        ...    0.0 sec
Reduced shell lists constructed in    0.1 sec

Total number of grid points                  ...    17576
Total number of batches                      ...      288
Average number of points per batch           ...       61
Average number of grid points per atom       ...     1098
Average number of shells per batch           ...   102.92 (80.40%)
Average number of basis functions per batch  ...   277.38 (78.80%)
Average number of large shells per batch     ...    81.07 (78.77%)
Average number of large basis fcns per batch ...   217.32 (78.34%)
Maximum spatial batch extension              ...  20.35, 17.47, 20.17 au
Average spatial batch extension              ...   0.91,  0.96,  0.87 au

Time for grid setup =    0.068 sec

------------------------------
INITIAL GUESS: MODEL POTENTIAL
------------------------------
Loading Hartree-Fock densities                     ... done
Calculating cut-offs                               ... done
Setting up the integral package                    ... done
Initializing the effective Hamiltonian             ... done
Starting the Coulomb interaction                   ... done (   0.1 sec)
Reading the grid                                   ... done
Mapping shells                                     ... done
Starting the XC term evaluation                    ... done (   0.1 sec)
done (   0.0 sec)
Diagonalizing the Hamiltonian                      ... done (   0.0 sec)
Back transforming the eigenvectors                 ... done (   0.0 sec)
Now organizing SCF variables                       ... done
The symmetry of the initial guess is 1-Ag
Irrep occupations for operator 0
    Ag -    5
   B1g -    3
   B2g -    3
   B3g -    3
    Au -    2
   B1u -    4
   B2u -    4
   B3u -    4
                      ------------------
                      INITIAL GUESS DONE (   0.3 sec)
                      ------------------
--------------
SCF ITERATIONS
--------------
ITER       Energy         Delta-E        Max-DP      RMS-DP      [F,P]     Damp
               ***  Starting incremental Fock matrix formation  ***
  0   -307.1614853738   0.000000000000 0.02841801  0.00086763  0.1645440 0.7000
  1   -307.2728476419  -0.111362268131 0.02075277  0.00042311  0.1238381 0.7000
                               ***Turning on DIIS***
  2   -307.3384779065  -0.065630264579 0.05020356  0.00092586  0.0921652 0.0000
  3   -307.0892512884   0.249226618081 0.01942010  0.00048302  0.0176071 0.0000
  4   -307.7939151139  -0.704663825498 0.00530687  0.00009753  0.0066991 0.0000
                      *** Initiating the SOSCF procedure ***
                           *** Shutting down DIIS ***
                      *** Re-Reading the Fockian *** 
                      *** Removing any level shift *** 
ITER      Energy       Delta-E        Grad      Rot      Max-DP    RMS-DP
  5   -307.49532790   0.2985872146  0.001089  0.001089  0.002587  0.000051
               *** Restarting incremental Fock matrix formation ***
  6   -307.48506252   0.0102653793  0.000153  0.000186  0.000725  0.000014
  7   -307.48506370  -0.0000011831  0.000055  0.000103  0.000418  0.000008
  8   -307.48506387  -0.0000001711  0.000019  0.000015  0.000022  0.000001
  9   -307.48506388  -0.0000000063  0.000008  0.000008  0.000022  0.000000
                  ***Gradient check signals convergence***
              ***Rediagonalizing the Fockian in SOSCF/NRSCF***

               *****************************************************
               *                     SUCCESS                       *
               *           SCF CONVERGED AFTER  10 CYCLES          *
               *****************************************************


----------------
TOTAL SCF ENERGY
----------------

Total Energy       :         -307.48506389 Eh           -8367.09396 eV

Components:
Nuclear Repulsion  :          367.94791727 Eh           10012.37185 eV
Electronic Energy  :         -675.43298116 Eh          -18379.46581 eV
One Electron Energy:        -1145.23009086 Eh          -31163.29508 eV
Two Electron Energy:          469.79710970 Eh           12783.82927 eV

Virial components:
Potential Energy   :         -614.55944558 Eh          -16723.01270 eV
Kinetic Energy     :          307.07438168 Eh            8355.91873 eV
Virial Ratio       :            2.00133740


---------------
SCF CONVERGENCE
---------------

  Last Energy change         ...   -1.1389e-08  Tolerance :   1.0000e-08
  Last MAX-Density change    ...    3.5876e-06  Tolerance :   1.0000e-07
  Last RMS-Density change    ...    6.4406e-08  Tolerance :   5.0000e-09
  Last Orbital Gradient      ...    2.9412e-07  Tolerance :   1.0000e-05
  Last Orbital Rotation      ...    5.7317e-07  Tolerance :   1.0000e-05

             **** THE GBW FILE WAS UPDATED (/home/vladimir/Quantum_Chemistry/ORCA/C8H8/cubane/optimize/MP2/cc-pVTZ-RI/./cubane.gbw) ****
             **** DENSITY FILE WAS UPDATED (/home/vladimir/Quantum_Chemistry/ORCA/C8H8/cubane/optimize/MP2/cc-pVTZ-RI/./cubane.scfp.tmp) ****
             **** ENERGY FILE WAS UPDATED (/home/vladimir/Quantum_Chemistry/ORCA/C8H8/cubane/optimize/MP2/cc-pVTZ-RI/./cubane.en.tmp) ****
----------------
ORBITAL ENERGIES
----------------

  NO   OCC          E(Eh)            E(eV)    Irrep 
   0   2.0000     -11.221181      -305.3439    1-Ag
   1   2.0000     -11.220685      -305.3304    1-B2u
   2   2.0000     -11.220685      -305.3304    1-B3u
   3   2.0000     -11.220685      -305.3304    1-B1u
   4   2.0000     -11.220176      -305.3165    1-B1g
   5   2.0000     -11.220176      -305.3165    1-B3g
   6   2.0000     -11.220176      -305.3165    1-B2g
   7   2.0000     -11.219649      -305.3022    1-Au
   8   2.0000      -1.244578       -33.8667    2-Ag
   9   2.0000      -0.978577       -26.6284    2-B2u
  10   2.0000      -0.978577       -26.6284    2-B3u
  11   2.0000      -0.978577       -26.6284    2-B1u
  12   2.0000      -0.767604       -20.8876    2-B2g
  13   2.0000      -0.767604       -20.8876    2-B3g
  14   2.0000      -0.767604       -20.8876    2-B1g
  15   2.0000      -0.710445       -19.3322    3-Ag
  16   2.0000      -0.641151       -17.4466    2-Au
  17   2.0000      -0.580083       -15.7849    3-B1u
  18   2.0000      -0.580083       -15.7849    3-B2u
  19   2.0000      -0.580083       -15.7849    3-B3u
  20   2.0000      -0.579581       -15.7712    4-Ag
  21   2.0000      -0.579581       -15.7712    5-Ag
  22   2.0000      -0.390347       -10.6219    4-B2u
  23   2.0000      -0.390347       -10.6219    4-B3u
  24   2.0000      -0.390347       -10.6219    4-B1u
  25   2.0000      -0.383117       -10.4251    3-B3g
  26   2.0000      -0.383117       -10.4251    3-B2g
  27   2.0000      -0.383117       -10.4251    3-B1g
  28   0.0000       0.145256         3.9526    6-Ag
  29   0.0000       0.162850         4.4314    5-B2u
  30   0.0000       0.162850         4.4314    5-B3u
  31   0.0000       0.162850         4.4314    5-B1u
  32   0.0000       0.199766         5.4359    4-B1g
  33   0.0000       0.199766         5.4359    4-B3g
  34   0.0000       0.199766         5.4359    4-B2g
  35   0.0000       0.220017         5.9870    3-Au
  36   0.0000       0.224514         6.1093    6-B1u
  37   0.0000       0.224514         6.1093    6-B2u
  38   0.0000       0.224514         6.1093    6-B3u
  39   0.0000       0.349371         9.5069    5-B2g
  40   0.0000       0.349371         9.5069    5-B3g
  41   0.0000       0.349371         9.5069    5-B1g
  42   0.0000       0.368110        10.0168    6-B1g
  43   0.0000       0.368111        10.0168    6-B3g
  44   0.0000       0.368111        10.0168    6-B2g
  45   0.0000       0.374862        10.2005    7-Ag
  46   0.0000       0.374862        10.2005    8-Ag
  47   0.0000       0.380013        10.3407    9-Ag
  48   0.0000       0.433775        11.8036    7-B3u
  49   0.0000       0.433775        11.8036    7-B2u
  50   0.0000       0.433775        11.8036    7-B1u
  51   0.0000       0.484391        13.1810    4-Au
  52   0.0000       0.484391        13.1810    5-Au
  53   0.0000       0.497776        13.5452    8-B1u
  54   0.0000       0.497776        13.5452    8-B3u
  55   0.0000       0.497776        13.5452    8-B2u
  56   0.0000       0.560156        15.2426    6-Au
  57   0.0000       0.569328        15.4922   10-Ag
  58   0.0000       0.593807        16.1583    9-B1u
  59   0.0000       0.593807        16.1583    9-B2u
  60   0.0000       0.593807        16.1583    9-B3u
  61   0.0000       0.624568        16.9953    7-B3g
  62   0.0000       0.624568        16.9953    7-B2g
  63   0.0000       0.624568        16.9953    7-B1g
  64   0.0000       0.627912        17.0864    8-B2g
  65   0.0000       0.627912        17.0864    8-B3g
  66   0.0000       0.627912        17.0864    8-B1g
  67   0.0000       0.646050        17.5799   10-B2u
  68   0.0000       0.646050        17.5799   10-B3u
  69   0.0000       0.646050        17.5799   10-B1u
  70   0.0000       0.697722        18.9860    9-B1g
  71   0.0000       0.697722        18.9860    9-B3g
  72   0.0000       0.697722        18.9860    9-B2g
  73   0.0000       0.707749        19.2588   11-Ag
  74   0.0000       0.707749        19.2588   12-Ag
  75   0.0000       0.731968        19.9179    7-Au
  76   0.0000       0.731968        19.9179    8-Au
  77   0.0000       0.866364        23.5750   10-B3g
  78   0.0000       0.866364        23.5750   10-B2g
  79   0.0000       0.866364        23.5750   10-B1g
  80   0.0000       0.902185        24.5497   11-B1u
  81   0.0000       0.902185        24.5497   11-B2u
  82   0.0000       0.902185        24.5497   11-B3u
  83   0.0000       0.912187        24.8219    9-Au
  84   0.0000       0.995757        27.0959   13-Ag
  85   0.0000       1.115148        30.3447   10-Au
  86   0.0000       1.122544        30.5460   11-B1g
  87   0.0000       1.122544        30.5460   11-B2g
  88   0.0000       1.122544        30.5460   11-B3g
  89   0.0000       1.149165        31.2704   12-B1u
  90   0.0000       1.149165        31.2704   12-B2u
  91   0.0000       1.149165        31.2704   12-B3u
  92   0.0000       1.181796        32.1583   12-B1g
  93   0.0000       1.181796        32.1583   12-B3g
  94   0.0000       1.181796        32.1583   12-B2g
  95   0.0000       1.198391        32.6099   13-B1u
  96   0.0000       1.198391        32.6099   13-B2u
  97   0.0000       1.198391        32.6099   13-B3u
  98   0.0000       1.205371        32.7998   14-Ag
  99   0.0000       1.205371        32.7998   15-Ag
 100   0.0000       1.261602        34.3299   14-B1u
 101   0.0000       1.261602        34.3299   14-B3u
 102   0.0000       1.261602        34.3299   14-B2u
 103   0.0000       1.308630        35.6096   16-Ag
 104   0.0000       1.308630        35.6096   17-Ag
 105   0.0000       1.311635        35.6914   15-B1u
 106   0.0000       1.311635        35.6914   15-B3u
 107   0.0000       1.311635        35.6914   15-B2u
 108   0.0000       1.390893        37.8481   18-Ag
 109   0.0000       1.409119        38.3441   11-Au
 110   0.0000       1.409119        38.3441   12-Au
 111   0.0000       1.434283        39.0288   13-B2g
 112   0.0000       1.434283        39.0288   13-B3g
 113   0.0000       1.434283        39.0288   13-B1g
 114   0.0000       1.439595        39.1734   16-B1u
 115   0.0000       1.439595        39.1734   16-B3u
 116   0.0000       1.439595        39.1734   16-B2u
 117   0.0000       1.450386        39.4670   14-B1g
 118   0.0000       1.450386        39.4670   14-B3g
 119   0.0000       1.450386        39.4670   14-B2g
 120   0.0000       1.499376        40.8001   17-B1u
 121   0.0000       1.499376        40.8001   17-B2u
 122   0.0000       1.499376        40.8001   17-B3u
 123   0.0000       1.528400        41.5899   15-B1g
 124   0.0000       1.528400        41.5899   15-B3g
 125   0.0000       1.528400        41.5899   15-B2g
 126   0.0000       1.548553        42.1383   13-Au
 127   0.0000       1.608857        43.7792   16-B3g
 128   0.0000       1.608857        43.7792   16-B2g
 129   0.0000       1.608857        43.7792   16-B1g
 130   0.0000       1.696608        46.1671   14-Au
 131   0.0000       1.696608        46.1671   15-Au
 132   0.0000       1.725346        46.9491   18-B2u
 133   0.0000       1.725346        46.9491   18-B3u
 134   0.0000       1.725346        46.9491   18-B1u
 135   0.0000       1.791612        48.7522   19-Ag
 136   0.0000       1.824797        49.6553   16-Au
 137   0.0000       1.879199        51.1356   19-B2u
 138   0.0000       1.879199        51.1356   19-B3u
 139   0.0000       1.879199        51.1356   19-B1u
 140   0.0000       1.894689        51.5571   17-B3g
 141   0.0000       1.894689        51.5571   17-B2g
 142   0.0000       1.894689        51.5571   17-B1g
 143   0.0000       2.001235        54.4564   18-B1g
 144   0.0000       2.001235        54.4564   18-B3g
 145   0.0000       2.001235        54.4564   18-B2g
 146   0.0000       2.133670        58.0601   17-Au
 147   0.0000       2.133670        58.0601   18-Au
 148   0.0000       2.146053        58.3971   19-B1g
 149   0.0000       2.146053        58.3971   19-B3g
 150   0.0000       2.146053        58.3971   19-B2g
 151   0.0000       2.232407        60.7469   20-Ag
 152   0.0000       2.232407        60.7469   21-Ag
 153   0.0000       2.232815        60.7580   22-Ag
 154   0.0000       2.503273        68.1175   20-B2u
 155   0.0000       2.503273        68.1175   20-B3u
 156   0.0000       2.503273        68.1175   20-B1u
 157   0.0000       2.578279        70.1585   23-Ag
 158   0.0000       2.619364        71.2765   19-Au
 159   0.0000       2.634105        71.6776   21-B1u
 160   0.0000       2.634105        71.6776   21-B3u
 161   0.0000       2.634105        71.6776   21-B2u
 162   0.0000       2.688504        73.1579   24-Ag
 163   0.0000       2.688504        73.1579   25-Ag
 164   0.0000       2.714325        73.8605   26-Ag
 165   0.0000       2.799623        76.1816   22-B1u
 166   0.0000       2.799623        76.1816   22-B2u
 167   0.0000       2.799623        76.1816   22-B3u
 168   0.0000       2.836961        77.1976   27-Ag
 169   0.0000       2.836961        77.1976   28-Ag
 170   0.0000       2.877903        78.3117   23-B3u
 171   0.0000       2.877903        78.3117   23-B2u
 172   0.0000       2.877903        78.3117   23-B1u
 173   0.0000       2.928970        79.7013   20-B1g
 174   0.0000       2.928970        79.7013   20-B2g
 175   0.0000       2.928970        79.7013   20-B3g
 176   0.0000       2.972201        80.8777   24-B2u
 177   0.0000       2.972201        80.8777   24-B3u
 178   0.0000       2.972201        80.8777   24-B1u
 179   0.0000       2.989910        81.3596   21-B1g
 180   0.0000       2.989910        81.3596   21-B2g
 181   0.0000       2.989910        81.3596   21-B3g
 182   0.0000       3.031615        82.4944   22-B3g
 183   0.0000       3.031615        82.4944   22-B2g
 184   0.0000       3.031615        82.4944   22-B1g
 185   0.0000       3.130731        85.1915   25-B3u
 186   0.0000       3.130731        85.1915   25-B2u
 187   0.0000       3.130731        85.1915   25-B1u
 188   0.0000       3.139777        85.4377   26-B3u
 189   0.0000       3.139777        85.4377   26-B2u
 190   0.0000       3.139777        85.4377   26-B1u
 191   0.0000       3.286378        89.4269   29-Ag
 192   0.0000       3.343200        90.9731   23-B1g
 193   0.0000       3.343200        90.9731   23-B3g
 194   0.0000       3.343200        90.9731   23-B2g
 195   0.0000       3.394648        92.3731   24-B1g
 196   0.0000       3.394648        92.3731   24-B3g
 197   0.0000       3.394648        92.3731   24-B2g
 198   0.0000       3.407103        92.7120   20-Au
 199   0.0000       3.420545        93.0778   21-Au
 200   0.0000       3.420545        93.0778   22-Au
 201   0.0000       3.462349        94.2153   23-Au
 202   0.0000       3.462349        94.2153   24-Au
 203   0.0000       3.465340        94.2967   27-B1u
 204   0.0000       3.465340        94.2967   27-B3u
 205   0.0000       3.465340        94.2967   27-B2u
 206   0.0000       3.489965        94.9668   25-B3g
 207   0.0000       3.489965        94.9668   25-B2g
 208   0.0000       3.489965        94.9668   25-B1g
 209   0.0000       3.569362        97.1273   28-B1u
 210   0.0000       3.569362        97.1273   28-B2u
 211   0.0000       3.569362        97.1273   28-B3u
 212   0.0000       3.572814        97.2212   30-Ag
 213   0.0000       3.572814        97.2212   31-Ag
 214   0.0000       3.574216        97.2594   26-B3g
 215   0.0000       3.574216        97.2594   26-B2g
 216   0.0000       3.574216        97.2594   26-B1g
 217   0.0000       3.613749        98.3351   25-Au
 218   0.0000       3.619738        98.4981   29-B1u
 219   0.0000       3.619738        98.4981   29-B3u
 220   0.0000       3.619738        98.4981   29-B2u
 221   0.0000       3.754913       102.1764   32-Ag
 222   0.0000       3.754913       102.1764   33-Ag
 223   0.0000       3.801080       103.4326   30-B2u
 224   0.0000       3.801080       103.4326   30-B3u
 225   0.0000       3.801080       103.4326   30-B1u
 226   0.0000       3.812360       103.7396   27-B1g
 227   0.0000       3.812360       103.7396   27-B2g
 228   0.0000       3.812360       103.7396   27-B3g
 229   0.0000       3.850941       104.7894   31-B1u
 230   0.0000       3.850941       104.7894   31-B2u
 231   0.0000       3.850941       104.7894   31-B3u
 232   0.0000       3.864490       105.1581   28-B1g
 233   0.0000       3.864490       105.1581   28-B3g
 234   0.0000       3.864490       105.1581   28-B2g
 235   0.0000       3.907614       106.3316   34-Ag
 236   0.0000       3.937023       107.1318   32-B1u
 237   0.0000       3.937023       107.1318   32-B2u
 238   0.0000       3.937023       107.1318   32-B3u
 239   0.0000       3.963702       107.8578   29-B2g
 240   0.0000       3.963702       107.8578   29-B3g
 241   0.0000       3.963702       107.8578   29-B1g
 242   0.0000       4.034675       109.7891   33-B1u
 243   0.0000       4.034675       109.7891   33-B3u
 244   0.0000       4.034675       109.7891   33-B2u
 245   0.0000       4.132194       112.4427   30-B1g
 246   0.0000       4.132194       112.4427   30-B3g
 247   0.0000       4.132194       112.4427   30-B2g
 248   0.0000       4.144969       112.7903   35-Ag
 249   0.0000       4.152060       112.9833   31-B1g
 250   0.0000       4.152060       112.9833   31-B2g
 251   0.0000       4.152060       112.9833   31-B3g
 252   0.0000       4.170303       113.4797   26-Au
 253   0.0000       4.170303       113.4797   27-Au
 254   0.0000       4.216335       114.7323   32-B1g
 255   0.0000       4.216335       114.7323   32-B3g
 256   0.0000       4.216335       114.7323   32-B2g
 257   0.0000       4.229693       115.0958   34-B2u
 258   0.0000       4.229693       115.0958   34-B3u
 259   0.0000       4.229693       115.0958   34-B1u
 260   0.0000       4.320369       117.5632   33-B3g
 261   0.0000       4.320369       117.5632   33-B2g
 262   0.0000       4.320369       117.5632   33-B1g
 263   0.0000       4.355269       118.5129   28-Au
 264   0.0000       4.355269       118.5129   29-Au
 265   0.0000       4.363332       118.7323   36-Ag
 266   0.0000       4.363332       118.7323   37-Ag
 267   0.0000       4.385501       119.3356   38-Ag
 268   0.0000       4.385501       119.3356   39-Ag
 269   0.0000       4.418712       120.2393   35-B2u
 270   0.0000       4.418712       120.2393   35-B3u
 271   0.0000       4.418712       120.2393   35-B1u
 272   0.0000       4.435005       120.6826   30-Au
 273   0.0000       4.478849       121.8757   36-B3u
 274   0.0000       4.478849       121.8757   36-B2u
 275   0.0000       4.478849       121.8757   36-B1u
 276   0.0000       4.514149       122.8362   34-B1g
 277   0.0000       4.514149       122.8362   34-B3g
 278   0.0000       4.514149       122.8362   34-B2g
 279   0.0000       4.538131       123.4888   31-Au
 280   0.0000       4.551435       123.8508   37-B3u
 281   0.0000       4.551435       123.8508   37-B2u
 282   0.0000       4.551435       123.8508   37-B1u
 283   0.0000       4.623922       125.8233   32-Au
 284   0.0000       4.661100       126.8350   35-B1g
 285   0.0000       4.661100       126.8350   35-B3g
 286   0.0000       4.661100       126.8350   35-B2g
 287   0.0000       4.701180       127.9256   33-Au
 288   0.0000       4.701180       127.9256   34-Au
 289   0.0000       4.772444       129.8648   38-B2u
 290   0.0000       4.772444       129.8648   38-B3u
 291   0.0000       4.772444       129.8648   38-B1u
 292   0.0000       4.913883       133.7135   36-B2g
 293   0.0000       4.913883       133.7135   36-B3g
 294   0.0000       4.913883       133.7135   36-B1g
 295   0.0000       4.922030       133.9353   39-B2u
 296   0.0000       4.922030       133.9353   39-B3u
 297   0.0000       4.922030       133.9353   39-B1u
 298   0.0000       4.969195       135.2187   37-B3g
 299   0.0000       4.969195       135.2187   37-B2g
 300   0.0000       4.969195       135.2187   37-B1g
 301   0.0000       5.075910       138.1225   40-Ag
 302   0.0000       5.075910       138.1225   41-Ag
 303   0.0000       5.114321       139.1678   38-B2g
 304   0.0000       5.114321       139.1678   38-B3g
 305   0.0000       5.114321       139.1678   38-B1g
 306   0.0000       5.201381       141.5368   35-Au
 307   0.0000       5.201381       141.5368   36-Au
 308   0.0000       5.345045       145.4461   40-B2u
 309   0.0000       5.345045       145.4461   40-B3u
 310   0.0000       5.345045       145.4461   40-B1u
 311   0.0000       5.353798       145.6843   42-Ag
 312   0.0000       5.419862       147.4819   37-Au
 313   0.0000       5.421941       147.5385   39-B3g
 314   0.0000       5.421941       147.5385   39-B2g
 315   0.0000       5.421941       147.5385   39-B1g
 316   0.0000       5.445728       148.1858   40-B1g
 317   0.0000       5.445728       148.1858   40-B3g
 318   0.0000       5.445728       148.1858   40-B2g
 319   0.0000       5.453656       148.4015   41-B3u
 320   0.0000       5.453656       148.4015   41-B2u
 321   0.0000       5.453656       148.4015   41-B1u
 322   0.0000       5.495824       149.5490   42-B2u
 323   0.0000       5.495824       149.5490   42-B3u
 324   0.0000       5.495824       149.5490   42-B1u
 325   0.0000       5.534242       150.5944   38-Au
 326   0.0000       5.534242       150.5944   39-Au
 327   0.0000       5.641148       153.5034   43-Ag
 328   0.0000       5.902016       160.6020   43-B1u
 329   0.0000       5.902016       160.6020   43-B2u
 330   0.0000       5.902016       160.6020   43-B3u
 331   0.0000       5.955945       162.0695   41-B1g
 332   0.0000       5.955945       162.0695   41-B3g
 333   0.0000       5.955945       162.0695   41-B2g
 334   0.0000       5.967511       162.3842   42-B3g
 335   0.0000       5.967511       162.3842   42-B2g
 336   0.0000       5.967511       162.3842   42-B1g
 337   0.0000       6.074852       165.3051   40-Au
 338   0.0000       6.404150       174.2658   43-B3g
 339   0.0000       6.404150       174.2658   43-B2g
 340   0.0000       6.404150       174.2658   43-B1g
 341   0.0000       6.411896       174.4766   41-Au
 342   0.0000       6.411896       174.4766   42-Au
 343   0.0000       6.959565       189.3794   43-Au
 344   0.0000      10.797149       293.8054   44-Ag
 345   0.0000      11.851824       322.5045   44-B3u
 346   0.0000      11.851824       322.5045   44-B2u
 347   0.0000      11.851824       322.5045   44-B1u
 348   0.0000      13.279030       361.3408   44-B1g
 349   0.0000      13.279030       361.3408   44-B2g
 350   0.0000      13.279030       361.3408   44-B3g
 351   0.0000      13.475966       366.6997   44-Au

                    ********************************
                    * MULLIKEN POPULATION ANALYSIS *
                    ********************************

-----------------------
MULLIKEN ATOMIC CHARGES
-----------------------
   0 H :    0.142713
   1 C :   -0.142713
   2 H :    0.142713
   3 C :   -0.142713
   4 H :    0.142713
   5 C :   -0.142713
   6 H :    0.142713
   7 C :   -0.142713
   8 H :    0.142713
   9 C :   -0.142713
  10 H :    0.142713
  11 C :   -0.142713
  12 H :    0.142713
  13 C :   -0.142713
  14 H :    0.142713
  15 C :   -0.142713
Sum of atomic charges:    0.0000000

--------------------------------
MULLIKEN REDUCED ORBITAL CHARGES
--------------------------------
  0 H s       :     0.830390  s :     0.830390
      pz      :     0.008290  p :     0.024871
      px      :     0.008290
      py      :     0.008290
      dz2     :     0.000545  d :     0.002026
      dxz     :     0.000312
      dyz     :     0.000312
      dx2y2   :     0.000545
      dxy     :     0.000312
  1 C s       :     3.256585  s :     3.256585
      pz      :     0.918839  p :     2.756517
      px      :     0.918839
      py      :     0.918839
      dz2     :     0.027843  d :     0.119962
      dxz     :     0.021425
      dyz     :     0.021425
      dx2y2   :     0.027843
      dxy     :     0.021425
      f0      :     0.002024  f :     0.009649
      f+1     :     0.001349
      f-1     :     0.001349
      f+2     :     0.000944
      f-2     :     0.000744
      f+3     :     0.001619
      f-3     :     0.001619
  2 H s       :     0.830390  s :     0.830390
      pz      :     0.008290  p :     0.024871
      px      :     0.008290
      py      :     0.008290
      dz2     :     0.000545  d :     0.002026
      dxz     :     0.000312
      dyz     :     0.000312
      dx2y2   :     0.000545
      dxy     :     0.000312
  3 C s       :     3.256585  s :     3.256585
      pz      :     0.918839  p :     2.756517
      px      :     0.918839
      py      :     0.918839
      dz2     :     0.027843  d :     0.119962
      dxz     :     0.021425
      dyz     :     0.021425
      dx2y2   :     0.027843
      dxy     :     0.021425
      f0      :     0.002024  f :     0.009649
      f+1     :     0.001349
      f-1     :     0.001349
      f+2     :     0.000944
      f-2     :     0.000744
      f+3     :     0.001619
      f-3     :     0.001619
  4 H s       :     0.830390  s :     0.830390
      pz      :     0.008290  p :     0.024871
      px      :     0.008290
      py      :     0.008290
      dz2     :     0.000545  d :     0.002026
      dxz     :     0.000312
      dyz     :     0.000312
      dx2y2   :     0.000545
      dxy     :     0.000312
  5 C s       :     3.256585  s :     3.256585
      pz      :     0.918839  p :     2.756517
      px      :     0.918839
      py      :     0.918839
      dz2     :     0.027843  d :     0.119962
      dxz     :     0.021425
      dyz     :     0.021425
      dx2y2   :     0.027843
      dxy     :     0.021425
      f0      :     0.002024  f :     0.009649
      f+1     :     0.001349
      f-1     :     0.001349
      f+2     :     0.000944
      f-2     :     0.000744
      f+3     :     0.001619
      f-3     :     0.001619
  6 H s       :     0.830390  s :     0.830390
      pz      :     0.008290  p :     0.024871
      px      :     0.008290
      py      :     0.008290
      dz2     :     0.000545  d :     0.002026
      dxz     :     0.000312
      dyz     :     0.000312
      dx2y2   :     0.000545
      dxy     :     0.000312
  7 C s       :     3.256585  s :     3.256585
      pz      :     0.918839  p :     2.756517
      px      :     0.918839
      py      :     0.918839
      dz2     :     0.027843  d :     0.119962
      dxz     :     0.021425
      dyz     :     0.021425
      dx2y2   :     0.027843
      dxy     :     0.021425
      f0      :     0.002024  f :     0.009649
      f+1     :     0.001349
      f-1     :     0.001349
      f+2     :     0.000944
      f-2     :     0.000744
      f+3     :     0.001619
      f-3     :     0.001619
  8 H s       :     0.830390  s :     0.830390
      pz      :     0.008290  p :     0.024871
      px      :     0.008290
      py      :     0.008290
      dz2     :     0.000545  d :     0.002026
      dxz     :     0.000312
      dyz     :     0.000312
      dx2y2   :     0.000545
      dxy     :     0.000312
  9 C s       :     3.256585  s :     3.256585
      pz      :     0.918839  p :     2.756517
      px      :     0.918839
      py      :     0.918839
      dz2     :     0.027843  d :     0.119962
      dxz     :     0.021425
      dyz     :     0.021425
      dx2y2   :     0.027843
      dxy     :     0.021425
      f0      :     0.002024  f :     0.009649
      f+1     :     0.001349
      f-1     :     0.001349
      f+2     :     0.000944
      f-2     :     0.000744
      f+3     :     0.001619
      f-3     :     0.001619
 10 H s       :     0.830390  s :     0.830390
      pz      :     0.008290  p :     0.024871
      px      :     0.008290
      py      :     0.008290
      dz2     :     0.000545  d :     0.002026
      dxz     :     0.000312
      dyz     :     0.000312
      dx2y2   :     0.000545
      dxy     :     0.000312
 11 C s       :     3.256585  s :     3.256585
      pz      :     0.918839  p :     2.756517
      px      :     0.918839
      py      :     0.918839
      dz2     :     0.027843  d :     0.119962
      dxz     :     0.021425
      dyz     :     0.021425
      dx2y2   :     0.027843
      dxy     :     0.021425
      f0      :     0.002024  f :     0.009649
      f+1     :     0.001349
      f-1     :     0.001349
      f+2     :     0.000944
      f-2     :     0.000744
      f+3     :     0.001619
      f-3     :     0.001619
 12 H s       :     0.830390  s :     0.830390
      pz      :     0.008290  p :     0.024871
      px      :     0.008290
      py      :     0.008290
      dz2     :     0.000545  d :     0.002026
      dxz     :     0.000312
      dyz     :     0.000312
      dx2y2   :     0.000545
      dxy     :     0.000312
 13 C s       :     3.256585  s :     3.256585
      pz      :     0.918839  p :     2.756517
      px      :     0.918839
      py      :     0.918839
      dz2     :     0.027843  d :     0.119962
      dxz     :     0.021425
      dyz     :     0.021425
      dx2y2   :     0.027843
      dxy     :     0.021425
      f0      :     0.002024  f :     0.009649
      f+1     :     0.001349
      f-1     :     0.001349
      f+2     :     0.000944
      f-2     :     0.000744
      f+3     :     0.001619
      f-3     :     0.001619
 14 H s       :     0.830390  s :     0.830390
      pz      :     0.008290  p :     0.024871
      px      :     0.008290
      py      :     0.008290
      dz2     :     0.000545  d :     0.002026
      dxz     :     0.000312
      dyz     :     0.000312
      dx2y2   :     0.000545
      dxy     :     0.000312
 15 C s       :     3.256585  s :     3.256585
      pz      :     0.918839  p :     2.756517
      px      :     0.918839
      py      :     0.918839
      dz2     :     0.027843  d :     0.119962
      dxz     :     0.021425
      dyz     :     0.021425
      dx2y2   :     0.027843
      dxy     :     0.021425
      f0      :     0.002024  f :     0.009649
      f+1     :     0.001349
      f-1     :     0.001349
      f+2     :     0.000944
      f-2     :     0.000744
      f+3     :     0.001619
      f-3     :     0.001619


                     *******************************
                     * LOEWDIN POPULATION ANALYSIS *
                     *******************************

----------------------
LOEWDIN ATOMIC CHARGES
----------------------
   0 H :   -0.061099
   1 C :    0.061099
   2 H :   -0.061099
   3 C :    0.061099
   4 H :   -0.061099
   5 C :    0.061099
   6 H :   -0.061099
   7 C :    0.061099
   8 H :   -0.061099
   9 C :    0.061099
  10 H :   -0.061099
  11 C :    0.061099
  12 H :   -0.061099
  13 C :    0.061099
  14 H :   -0.061099
  15 C :    0.061099

-------------------------------
LOEWDIN REDUCED ORBITAL CHARGES
-------------------------------
  0 H s       :     0.870847  s :     0.870847
      pz      :     0.054255  p :     0.162766
      px      :     0.054255
      py      :     0.054255
      dz2     :     0.006359  d :     0.027486
      dxz     :     0.004923
      dyz     :     0.004923
      dx2y2   :     0.006359
      dxy     :     0.004923
  1 C s       :     2.673436  s :     2.673436
      pz      :     0.910593  p :     2.731778
      px      :     0.910593
      py      :     0.910593
      dz2     :     0.095504  d :     0.476714
      dxz     :     0.095235
      dyz     :     0.095235
      dx2y2   :     0.095504
      dxy     :     0.095235
      f0      :     0.010828  f :     0.056973
      f+1     :     0.008661
      f-1     :     0.008661
      f+2     :     0.007361
      f-2     :     0.002407
      f+3     :     0.009528
      f-3     :     0.009528
  2 H s       :     0.870847  s :     0.870847
      pz      :     0.054255  p :     0.162766
      px      :     0.054255
      py      :     0.054255
      dz2     :     0.006359  d :     0.027486
      dxz     :     0.004923
      dyz     :     0.004923
      dx2y2   :     0.006359
      dxy     :     0.004923
  3 C s       :     2.673436  s :     2.673436
      pz      :     0.910593  p :     2.731778
      px      :     0.910593
      py      :     0.910593
      dz2     :     0.095504  d :     0.476714
      dxz     :     0.095235
      dyz     :     0.095235
      dx2y2   :     0.095504
      dxy     :     0.095235
      f0      :     0.010828  f :     0.056973
      f+1     :     0.008661
      f-1     :     0.008661
      f+2     :     0.007361
      f-2     :     0.002407
      f+3     :     0.009528
      f-3     :     0.009528
  4 H s       :     0.870847  s :     0.870847
      pz      :     0.054255  p :     0.162766
      px      :     0.054255
      py      :     0.054255
      dz2     :     0.006359  d :     0.027486
      dxz     :     0.004923
      dyz     :     0.004923
      dx2y2   :     0.006359
      dxy     :     0.004923
  5 C s       :     2.673436  s :     2.673436
      pz      :     0.910593  p :     2.731778
      px      :     0.910593
      py      :     0.910593
      dz2     :     0.095504  d :     0.476714
      dxz     :     0.095235
      dyz     :     0.095235
      dx2y2   :     0.095504
      dxy     :     0.095235
      f0      :     0.010828  f :     0.056973
      f+1     :     0.008661
      f-1     :     0.008661
      f+2     :     0.007361
      f-2     :     0.002407
      f+3     :     0.009528
      f-3     :     0.009528
  6 H s       :     0.870847  s :     0.870847
      pz      :     0.054255  p :     0.162766
      px      :     0.054255
      py      :     0.054255
      dz2     :     0.006359  d :     0.027486
      dxz     :     0.004923
      dyz     :     0.004923
      dx2y2   :     0.006359
      dxy     :     0.004923
  7 C s       :     2.673436  s :     2.673436
      pz      :     0.910593  p :     2.731778
      px      :     0.910593
      py      :     0.910593
      dz2     :     0.095504  d :     0.476714
      dxz     :     0.095235
      dyz     :     0.095235
      dx2y2   :     0.095504
      dxy     :     0.095235
      f0      :     0.010828  f :     0.056973
      f+1     :     0.008661
      f-1     :     0.008661
      f+2     :     0.007361
      f-2     :     0.002407
      f+3     :     0.009528
      f-3     :     0.009528
  8 H s       :     0.870847  s :     0.870847
      pz      :     0.054255  p :     0.162766
      px      :     0.054255
      py      :     0.054255
      dz2     :     0.006359  d :     0.027486
      dxz     :     0.004923
      dyz     :     0.004923
      dx2y2   :     0.006359
      dxy     :     0.004923
  9 C s       :     2.673436  s :     2.673436
      pz      :     0.910593  p :     2.731778
      px      :     0.910593
      py      :     0.910593
      dz2     :     0.095504  d :     0.476714
      dxz     :     0.095235
      dyz     :     0.095235
      dx2y2   :     0.095504
      dxy     :     0.095235
      f0      :     0.010828  f :     0.056973
      f+1     :     0.008661
      f-1     :     0.008661
      f+2     :     0.007361
      f-2     :     0.002407
      f+3     :     0.009528
      f-3     :     0.009528
 10 H s       :     0.870847  s :     0.870847
      pz      :     0.054255  p :     0.162766
      px      :     0.054255
      py      :     0.054255
      dz2     :     0.006359  d :     0.027486
      dxz     :     0.004923
      dyz     :     0.004923
      dx2y2   :     0.006359
      dxy     :     0.004923
 11 C s       :     2.673436  s :     2.673436
      pz      :     0.910593  p :     2.731778
      px      :     0.910593
      py      :     0.910593
      dz2     :     0.095504  d :     0.476714
      dxz     :     0.095235
      dyz     :     0.095235
      dx2y2   :     0.095504
      dxy     :     0.095235
      f0      :     0.010828  f :     0.056973
      f+1     :     0.008661
      f-1     :     0.008661
      f+2     :     0.007361
      f-2     :     0.002407
      f+3     :     0.009528
      f-3     :     0.009528
 12 H s       :     0.870847  s :     0.870847
      pz      :     0.054255  p :     0.162766
      px      :     0.054255
      py      :     0.054255
      dz2     :     0.006359  d :     0.027486
      dxz     :     0.004923
      dyz     :     0.004923
      dx2y2   :     0.006359
      dxy     :     0.004923
 13 C s       :     2.673436  s :     2.673436
      pz      :     0.910593  p :     2.731778
      px      :     0.910593
      py      :     0.910593
      dz2     :     0.095504  d :     0.476714
      dxz     :     0.095235
      dyz     :     0.095235
      dx2y2   :     0.095504
      dxy     :     0.095235
      f0      :     0.010828  f :     0.056973
      f+1     :     0.008661
      f-1     :     0.008661
      f+2     :     0.007361
      f-2     :     0.002407
      f+3     :     0.009528
      f-3     :     0.009528
 14 H s       :     0.870847  s :     0.870847
      pz      :     0.054255  p :     0.162766
      px      :     0.054255
      py      :     0.054255
      dz2     :     0.006359  d :     0.027486
      dxz     :     0.004923
      dyz     :     0.004923
      dx2y2   :     0.006359
      dxy     :     0.004923
 15 C s       :     2.673436  s :     2.673436
      pz      :     0.910593  p :     2.731778
      px      :     0.910593
      py      :     0.910593
      dz2     :     0.095504  d :     0.476714
      dxz     :     0.095235
      dyz     :     0.095235
      dx2y2   :     0.095504
      dxy     :     0.095235
      f0      :     0.010828  f :     0.056973
      f+1     :     0.008661
      f-1     :     0.008661
      f+2     :     0.007361
      f-2     :     0.002407
      f+3     :     0.009528
      f-3     :     0.009528


                      *****************************
                      * MAYER POPULATION ANALYSIS *
                      *****************************

  NA   - Mulliken gross atomic population
  ZA   - Total nuclear charge
  QA   - Mulliken gross atomic charge
  VA   - Mayer's total valence
  BVA  - Mayer's bonded valence
  FA   - Mayer's free valence

  ATOM       NA         ZA         QA         VA         BVA        FA
  0 H      0.8573     1.0000     0.1427     0.9736     0.9736     0.0000
  1 C      6.1427     6.0000    -0.1427     3.6870     3.6870     0.0000
  2 H      0.8573     1.0000     0.1427     0.9736     0.9736    -0.0000
  3 C      6.1427     6.0000    -0.1427     3.6870     3.6870    -0.0000
  4 H      0.8573     1.0000     0.1427     0.9736     0.9736     0.0000
  5 C      6.1427     6.0000    -0.1427     3.6870     3.6870     0.0000
  6 H      0.8573     1.0000     0.1427     0.9736     0.9736     0.0000
  7 C      6.1427     6.0000    -0.1427     3.6870     3.6870     0.0000
  8 H      0.8573     1.0000     0.1427     0.9736     0.9736     0.0000
  9 C      6.1427     6.0000    -0.1427     3.6870     3.6870     0.0000
 10 H      0.8573     1.0000     0.1427     0.9736     0.9736    -0.0000
 11 C      6.1427     6.0000    -0.1427     3.6870     3.6870    -0.0000
 12 H      0.8573     1.0000     0.1427     0.9736     0.9736    -0.0000
 13 C      6.1427     6.0000    -0.1427     3.6870     3.6870     0.0000
 14 H      0.8573     1.0000     0.1427     0.9736     0.9736     0.0000
 15 C      6.1427     6.0000    -0.1427     3.6870     3.6870     0.0000

  Mayer bond orders larger than 0.1
B(  0-H ,  1-C ) :   0.9595 B(  1-C ,  3-C ) :   0.9432 B(  1-C ,  5-C ) :   0.9432 
B(  1-C ,  7-C ) :   0.9432 B(  2-H ,  3-C ) :   0.9595 B(  3-C ,  9-C ) :   0.9432 
B(  3-C , 11-C ) :   0.9432 B(  4-H ,  5-C ) :   0.9595 B(  5-C ,  9-C ) :   0.9432 
B(  5-C , 13-C ) :   0.9432 B(  6-H ,  7-C ) :   0.9595 B(  7-C , 11-C ) :   0.9432 
B(  7-C , 13-C ) :   0.9432 B(  8-H ,  9-C ) :   0.9595 B(  9-C , 15-C ) :   0.9432 
B( 10-H , 11-C ) :   0.9595 B( 11-C , 15-C ) :   0.9432 B( 12-H , 13-C ) :   0.9595 
B( 13-C , 15-C ) :   0.9432 B( 14-H , 15-C ) :   0.9595 

-------
TIMINGS
-------

Total SCF time: 0 days 0 hours 2 min 31 sec 

Total time                  ....     151.625 sec
Sum of individual times     ....     151.360 sec  ( 99.8%)

Fock matrix formation       ....     150.654 sec  ( 99.4%)
Diagonalization             ....       0.128 sec  (  0.1%)
Density matrix formation    ....       0.013 sec  (  0.0%)
[...]
      px      :     0.009747
      py      :     0.009747
      dz2     :     0.000715  d :     0.002735
      dxz     :     0.000435
      dyz     :     0.000435
      dx2y2   :     0.000715
      dxy     :     0.000435
  7 C s       :     3.266121  s :     3.266121
      pz      :     0.914887  p :     2.744662
      px      :     0.914887
      py      :     0.914887
      dz2     :     0.025676  d :     0.133803
      dxz     :     0.027484
      dyz     :     0.027484
      dx2y2   :     0.025676
      dxy     :     0.027484
      f0      :     0.002381  f :     0.013243
      f+1     :     0.001884
      f-1     :     0.001884
      f+2     :     0.001586
      f-2     :     0.001343
      f+3     :     0.002083
      f-3     :     0.002083
  8 H s       :     0.810194  s :     0.810194
      pz      :     0.009747  p :     0.029242
      px      :     0.009747
      py      :     0.009747
      dz2     :     0.000715  d :     0.002735
      dxz     :     0.000435
      dyz     :     0.000435
      dx2y2   :     0.000715
      dxy     :     0.000435
  9 C s       :     3.266121  s :     3.266121
      pz      :     0.914887  p :     2.744662
      px      :     0.914887
      py      :     0.914887
      dz2     :     0.025676  d :     0.133803
      dxz     :     0.027484
      dyz     :     0.027484
      dx2y2   :     0.025676
      dxy     :     0.027484
      f0      :     0.002381  f :     0.013243
      f+1     :     0.001884
      f-1     :     0.001884
      f+2     :     0.001586
      f-2     :     0.001343
      f+3     :     0.002083
      f-3     :     0.002083
 10 H s       :     0.810194  s :     0.810194
      pz      :     0.009747  p :     0.029242
      px      :     0.009747
      py      :     0.009747
      dz2     :     0.000715  d :     0.002735
      dxz     :     0.000435
      dyz     :     0.000435
      dx2y2   :     0.000715
      dxy     :     0.000435
 11 C s       :     3.266121  s :     3.266121
      pz      :     0.914887  p :     2.744662
      px      :     0.914887
      py      :     0.914887
      dz2     :     0.025676  d :     0.133803
      dxz     :     0.027484
      dyz     :     0.027484
      dx2y2   :     0.025676
      dxy     :     0.027484
      f0      :     0.002381  f :     0.013243
      f+1     :     0.001884
      f-1     :     0.001884
      f+2     :     0.001586
      f-2     :     0.001343
      f+3     :     0.002083
      f-3     :     0.002083
 12 H s       :     0.810194  s :     0.810194
      pz      :     0.009747  p :     0.029242
      px      :     0.009747
      py      :     0.009747
      dz2     :     0.000715  d :     0.002735
      dxz     :     0.000435
      dyz     :     0.000435
      dx2y2   :     0.000715
      dxy     :     0.000435
 13 C s       :     3.266121  s :     3.266121
      pz      :     0.914887  p :     2.744662
      px      :     0.914887
      py      :     0.914887
      dz2     :     0.025676  d :     0.133803
      dxz     :     0.027484
      dyz     :     0.027484
      dx2y2   :     0.025676
      dxy     :     0.027484
      f0      :     0.002381  f :     0.013243
      f+1     :     0.001884
      f-1     :     0.001884
      f+2     :     0.001586
      f-2     :     0.001343
      f+3     :     0.002083
      f-3     :     0.002083
 14 H s       :     0.810194  s :     0.810194
      pz      :     0.009747  p :     0.029242
      px      :     0.009747
      py      :     0.009747
      dz2     :     0.000715  d :     0.002735
      dxz     :     0.000435
      dyz     :     0.000435
      dx2y2   :     0.000715
      dxy     :     0.000435
 15 C s       :     3.266121  s :     3.266121
      pz      :     0.914887  p :     2.744662
      px      :     0.914887
      py      :     0.914887
      dz2     :     0.025676  d :     0.133803
      dxz     :     0.027484
      dyz     :     0.027484
      dx2y2   :     0.025676
      dxy     :     0.027484
      f0      :     0.002381  f :     0.013243
      f+1     :     0.001884
      f-1     :     0.001884
      f+2     :     0.001586
      f-2     :     0.001343
      f+3     :     0.002083
      f-3     :     0.002083


                     *******************************
                     * LOEWDIN POPULATION ANALYSIS *
                     *******************************

----------------------
LOEWDIN ATOMIC CHARGES
----------------------
   0 H :   -0.058374
   1 C :    0.058374
   2 H :   -0.058374
   3 C :    0.058374
   4 H :   -0.058374
   5 C :    0.058374
   6 H :   -0.058374
   7 C :    0.058374
   8 H :   -0.058374
   9 C :    0.058374
  10 H :   -0.058374
  11 C :    0.058374
  12 H :   -0.058374
  13 C :    0.058374
  14 H :   -0.058374
  15 C :    0.058374

-------------------------------
LOEWDIN REDUCED ORBITAL CHARGES
-------------------------------
  0 H s       :     0.853190  s :     0.853190
      pz      :     0.058454  p :     0.175361
      px      :     0.058454
      py      :     0.058454
      dz2     :     0.006531  d :     0.029823
      dxz     :     0.005587
      dyz     :     0.005587
      dx2y2   :     0.006531
      dxy     :     0.005587
  1 C s       :     2.678098  s :     2.678098
      pz      :     0.904163  p :     2.712490
      px      :     0.904163
      py      :     0.904163
      dz2     :     0.095716  d :     0.488329
      dxz     :     0.098966
      dyz     :     0.098966
      dx2y2   :     0.095716
      dxy     :     0.098966
      f0      :     0.011831  f :     0.062709
      f+1     :     0.009456
      f-1     :     0.009456
      f+2     :     0.008032
      f-2     :     0.003122
      f+3     :     0.010406
      f-3     :     0.010406
  2 H s       :     0.853190  s :     0.853190
      pz      :     0.058454  p :     0.175361
      px      :     0.058454
      py      :     0.058454
      dz2     :     0.006531  d :     0.029823
      dxz     :     0.005587
      dyz     :     0.005587
      dx2y2   :     0.006531
      dxy     :     0.005587
  3 C s       :     2.678098  s :     2.678098
      pz      :     0.904163  p :     2.712490
      px      :     0.904163
      py      :     0.904163
      dz2     :     0.095716  d :     0.488329
      dxz     :     0.098966
      dyz     :     0.098966
      dx2y2   :     0.095716
      dxy     :     0.098966
      f0      :     0.011831  f :     0.062709
      f+1     :     0.009456
      f-1     :     0.009456
      f+2     :     0.008032
      f-2     :     0.003122
      f+3     :     0.010406
      f-3     :     0.010406
  4 H s       :     0.853190  s :     0.853190
      pz      :     0.058454  p :     0.175361
      px      :     0.058454
      py      :     0.058454
      dz2     :     0.006531  d :     0.029823
      dxz     :     0.005587
      dyz     :     0.005587
      dx2y2   :     0.006531
      dxy     :     0.005587
  5 C s       :     2.678098  s :     2.678098
      pz      :     0.904163  p :     2.712490
      px      :     0.904163
      py      :     0.904163
      dz2     :     0.095716  d :     0.488329
      dxz     :     0.098966
      dyz     :     0.098966
      dx2y2   :     0.095716
      dxy     :     0.098966
      f0      :     0.011831  f :     0.062709
      f+1     :     0.009456
      f-1     :     0.009456
      f+2     :     0.008032
      f-2     :     0.003122
      f+3     :     0.010406
      f-3     :     0.010406
  6 H s       :     0.853190  s :     0.853190
      pz      :     0.058454  p :     0.175361
      px      :     0.058454
      py      :     0.058454
      dz2     :     0.006531  d :     0.029823
      dxz     :     0.005587
      dyz     :     0.005587
      dx2y2   :     0.006531
      dxy     :     0.005587
  7 C s       :     2.678098  s :     2.678098
      pz      :     0.904163  p :     2.712490
      px      :     0.904163
      py      :     0.904163
      dz2     :     0.095716  d :     0.488329
      dxz     :     0.098966
      dyz     :     0.098966
      dx2y2   :     0.095716
      dxy     :     0.098966
      f0      :     0.011831  f :     0.062709
      f+1     :     0.009456
      f-1     :     0.009456
      f+2     :     0.008032
      f-2     :     0.003122
      f+3     :     0.010406
      f-3     :     0.010406
  8 H s       :     0.853190  s :     0.853190
      pz      :     0.058454  p :     0.175361
      px      :     0.058454
      py      :     0.058454
      dz2     :     0.006531  d :     0.029823
      dxz     :     0.005587
      dyz     :     0.005587
      dx2y2   :     0.006531
      dxy     :     0.005587
  9 C s       :     2.678098  s :     2.678098
      pz      :     0.904163  p :     2.712490
      px      :     0.904163
      py      :     0.904163
      dz2     :     0.095716  d :     0.488329
      dxz     :     0.098966
      dyz     :     0.098966
      dx2y2   :     0.095716
      dxy     :     0.098966
      f0      :     0.011831  f :     0.062709
      f+1     :     0.009456
      f-1     :     0.009456
      f+2     :     0.008032
      f-2     :     0.003122
      f+3     :     0.010406
      f-3     :     0.010406
 10 H s       :     0.853190  s :     0.853190
      pz      :     0.058454  p :     0.175361
      px      :     0.058454
      py      :     0.058454
      dz2     :     0.006531  d :     0.029823
      dxz     :     0.005587
      dyz     :     0.005587
      dx2y2   :     0.006531
      dxy     :     0.005587
 11 C s       :     2.678098  s :     2.678098
      pz      :     0.904163  p :     2.712490
      px      :     0.904163
      py      :     0.904163
      dz2     :     0.095716  d :     0.488329
      dxz     :     0.098966
      dyz     :     0.098966
      dx2y2   :     0.095716
      dxy     :     0.098966
      f0      :     0.011831  f :     0.062709
      f+1     :     0.009456
      f-1     :     0.009456
      f+2     :     0.008032
      f-2     :     0.003122
      f+3     :     0.010406
      f-3     :     0.010406
 12 H s       :     0.853190  s :     0.853190
      pz      :     0.058454  p :     0.175361
      px      :     0.058454
      py      :     0.058454
      dz2     :     0.006531  d :     0.029823
      dxz     :     0.005587
      dyz     :     0.005587
      dx2y2   :     0.006531
      dxy     :     0.005587
 13 C s       :     2.678098  s :     2.678098
      pz      :     0.904163  p :     2.712490
      px      :     0.904163
      py      :     0.904163
      dz2     :     0.095716  d :     0.488329
      dxz     :     0.098966
      dyz     :     0.098966
      dx2y2   :     0.095716
      dxy     :     0.098966
      f0      :     0.011831  f :     0.062709
      f+1     :     0.009456
      f-1     :     0.009456
      f+2     :     0.008032
      f-2     :     0.003122
      f+3     :     0.010406
      f-3     :     0.010406
 14 H s       :     0.853190  s :     0.853190
      pz      :     0.058454  p :     0.175361
      px      :     0.058454
      py      :     0.058454
      dz2     :     0.006531  d :     0.029823
      dxz     :     0.005587
      dyz     :     0.005587
      dx2y2   :     0.006531
      dxy     :     0.005587
 15 C s       :     2.678098  s :     2.678098
      pz      :     0.904163  p :     2.712490
      px      :     0.904163
      py      :     0.904163
      dz2     :     0.095716  d :     0.488329
      dxz     :     0.098966
      dyz     :     0.098966
      dx2y2   :     0.095716
      dxy     :     0.098966
      f0      :     0.011831  f :     0.062709
      f+1     :     0.009456
      f-1     :     0.009456
      f+2     :     0.008032
      f-2     :     0.003122
      f+3     :     0.010406
      f-3     :     0.010406


                      *****************************
                      * MAYER POPULATION ANALYSIS *
                      *****************************

  NA   - Mulliken gross atomic population
  ZA   - Total nuclear charge
  QA   - Mulliken gross atomic charge
  VA   - Mayer's total valence
  BVA  - Mayer's bonded valence
  FA   - Mayer's free valence

  ATOM       NA         ZA         QA         VA         BVA        FA
  0 H      0.8422     1.0000     0.1578     0.9767     0.9210     0.0557
  1 C      6.1578     6.0000    -0.1578     3.8337     3.4815     0.3522
  2 H      0.8422     1.0000     0.1578     0.9767     0.9210     0.0557
  3 C      6.1578     6.0000    -0.1578     3.8337     3.4815     0.3522
  4 H      0.8422     1.0000     0.1578     0.9767     0.9210     0.0557
  5 C      6.1578     6.0000    -0.1578     3.8337     3.4815     0.3522
  6 H      0.8422     1.0000     0.1578     0.9767     0.9210     0.0557
  7 C      6.1578     6.0000    -0.1578     3.8337     3.4815     0.3522
  8 H      0.8422     1.0000     0.1578     0.9767     0.9210     0.0557
  9 C      6.1578     6.0000    -0.1578     3.8337     3.4815     0.3522
 10 H      0.8422     1.0000     0.1578     0.9767     0.9210     0.0557
 11 C      6.1578     6.0000    -0.1578     3.8337     3.4815     0.3522
 12 H      0.8422     1.0000     0.1578     0.9767     0.9210     0.0557
 13 C      6.1578     6.0000    -0.1578     3.8337     3.4815     0.3522
 14 H      0.8422     1.0000     0.1578     0.9767     0.9210     0.0557
 15 C      6.1578     6.0000    -0.1578     3.8337     3.4815     0.3522

  Mayer bond orders larger than 0.1
B(  0-H ,  1-C ) :   0.9020 B(  1-C ,  3-C ) :   0.8768 B(  1-C ,  5-C ) :   0.8768 
B(  1-C ,  7-C ) :   0.8768 B(  2-H ,  3-C ) :   0.9020 B(  3-C ,  9-C ) :   0.8768 
B(  3-C , 11-C ) :   0.8768 B(  4-H ,  5-C ) :   0.9020 B(  5-C ,  9-C ) :   0.8768 
B(  5-C , 13-C ) :   0.8768 B(  6-H ,  7-C ) :   0.9020 B(  7-C , 11-C ) :   0.8768 
B(  7-C , 13-C ) :   0.8768 B(  8-H ,  9-C ) :   0.9020 B(  9-C , 15-C ) :   0.8768 
B( 10-H , 11-C ) :   0.9020 B( 11-C , 15-C ) :   0.8768 B( 12-H , 13-C ) :   0.9020 
B( 13-C , 15-C ) :   0.8768 B( 14-H , 15-C ) :   0.9020 


-------
TIMINGS
-------

Total time                :  236.295 sec
Integral trafo            :    0.943 sec (  0.4%)
FC preparation            :    0.258 sec (  0.1%)
I/O of integrals          :    0.009 sec (  0.0%)
K(i,j) Operators          :    0.545 sec (  0.2%)
T(i,j) pair energies      :    0.046 sec (  0.0%)
V-calculation             :    0.017 sec (  0.0%)
V**(-1/2)                 :    0.053 sec (  0.0%)
Gamma(ia|P)               :    0.534 sec (  0.2%)
Gamma-Trafo               :    0.200 sec (  0.1%)
D(virtual)                :    0.057 sec (  0.0%)
D(internal)               :    0.352 sec (  0.1%)
W(virtual)                :    0.114 sec (  0.0%)
W(internal)               :    0.428 sec (  0.2%)
L(virtual)                :    3.365 sec (  1.4%)
L(internal)               :    0.032 sec (  0.0%)
G(D)                      :   18.631 sec (  7.9%)
G(Z)                      :   19.029 sec (  8.1%)
Z-Vector Solution         :   97.873 sec ( 41.4%)
3-Index Derivative        :    6.169 sec (  2.6%)
2-Index Derivative        :    0.052 sec (  0.0%)
Separable Gradient        :   86.580 sec ( 36.6%)


---------------------------------------
MP2 TOTAL ENERGY:     -308.778015436 Eh
---------------------------------------

-----------------------------------
NORM OF THE MP2 GRADIENT:  0.000112
-----------------------------------

-------------------------   --------------------
FINAL SINGLE POINT ENERGY      -308.778015435973
-------------------------   --------------------

                                *** OPTIMIZATION RUN DONE ***

                            ***************************************
                            *     ORCA property calculations      *
                            ***************************************

                                    ---------------------
                                    Active property flags
                                    ---------------------
   (+) Dipole Moment


------------------------------------------------------------------------------
                       ORCA ELECTRIC PROPERTIES CALCULATION
------------------------------------------------------------------------------

Dipole Moment Calculation                       ... on
Quadrupole Moment Calculation                   ... off
Polarizability Calculation                      ... off
GBWName                                         ... /home/vladimir/Quantum_Chemistry/ORCA/C8H8/cubane/optimize/MP2/cc-pVTZ-RI/./cubane.gbw
Electron density file                           ... /home/vladimir/Quantum_Chemistry/ORCA/C8H8/cubane/optimize/MP2/cc-pVTZ-RI/./cubane.scfp.tmp

-------------
DIPOLE MOMENT
-------------
                                X             Y             Z
Electronic contribution:      0.00000      -0.00000      -0.00000
Nuclear contribution   :     -0.00000       0.00000       0.00000
                        -----------------------------------------
Total Dipole Moment    :     -0.00000      -0.00000      -0.00000
                        -----------------------------------------
Magnitude (a.u.)       :      0.00000
Magnitude (Debye)      :      0.00000


                         *** MP2 UNRELAXED DENSITY ***

------------------------------------------------------------------------------
                       ORCA ELECTRIC PROPERTIES CALCULATION
------------------------------------------------------------------------------

Dipole Moment Calculation                       ... on
Quadrupole Moment Calculation                   ... off
Polarizability Calculation                      ... off
GBWName                                         ... /home/vladimir/Quantum_Chemistry/ORCA/C8H8/cubane/optimize/MP2/cc-pVTZ-RI/./cubane.gbw
Electron density file                           ... /home/vladimir/Quantum_Chemistry/ORCA/C8H8/cubane/optimize/MP2/cc-pVTZ-RI/./cubane.pmp2ur

-------------
DIPOLE MOMENT
-------------
                                X             Y             Z
Electronic contribution:      0.00000      -0.00000      -0.00000
Nuclear contribution   :     -0.00000       0.00000       0.00000
                        -----------------------------------------
Total Dipole Moment    :     -0.00000       0.00000       0.00000
                        -----------------------------------------
Magnitude (a.u.)       :      0.00000
Magnitude (Debye)      :      0.00000


                           *** MP2 RELAXED DENSITY ***

------------------------------------------------------------------------------
                       ORCA ELECTRIC PROPERTIES CALCULATION
------------------------------------------------------------------------------

Dipole Moment Calculation                       ... on
Quadrupole Moment Calculation                   ... off
Polarizability Calculation                      ... off
GBWName                                         ... /home/vladimir/Quantum_Chemistry/ORCA/C8H8/cubane/optimize/MP2/cc-pVTZ-RI/./cubane.gbw
Electron density file                           ... /home/vladimir/Quantum_Chemistry/ORCA/C8H8/cubane/optimize/MP2/cc-pVTZ-RI/./cubane.pmp2re

-------------
DIPOLE MOMENT
-------------
                                X             Y             Z
Electronic contribution:      0.00000      -0.00000       0.00000
Nuclear contribution   :     -0.00000       0.00000       0.00000
                        -----------------------------------------
Total Dipole Moment    :     -0.00000      -0.00000       0.00000
                        -----------------------------------------
Magnitude (a.u.)       :      0.00000
Magnitude (Debye)      :      0.00000


Timings for individual modules:

Sum of individual times         ...      682.007 sec (=  11.367 min)
GTO integral calculation        ...        1.193 sec (=   0.020 min)   0.2 %
SCF iterations                  ...      206.864 sec (=   3.448 min)  30.3 %
MP2 module                      ...      473.862 sec (=   7.898 min)  69.5 %
Geometry relaxation             ...        0.088 sec (=   0.001 min)   0.0 %
                             ****ORCA TERMINATED NORMALLY****
TOTAL RUN TIME: 0 days 0 hours 11 minutes 22 seconds 599 msec
