 argument  1 = cubane.nw
                                         
                                         


              Northwest Computational Chemistry Package (NWChem) 6.6
              ------------------------------------------------------


                    Environmental Molecular Sciences Laboratory
                       Pacific Northwest National Laboratory
                                Richland, WA 99352

                              Copyright (c) 1994-2015
                       Pacific Northwest National Laboratory
                            Battelle Memorial Institute

             NWChem is an open-source computational chemistry package
                        distributed under the terms of the
                      Educational Community License (ECL) 2.0
             A copy of the license is included with this distribution
                              in the LICENSE.TXT file

                                  ACKNOWLEDGMENT
                                  --------------

            This software and its documentation were developed at the
            EMSL at Pacific Northwest National Laboratory, a multiprogram
            national laboratory, operated for the U.S. Department of Energy
            by Battelle under Contract Number DE-AC05-76RL01830. Support
            for this work was provided by the Department of Energy Office
            of Biological and Environmental Research, Office of Basic
            Energy Sciences, and the Office of Advanced Scientific Computing.


           Job information
           ---------------

    hostname        = vladimir-Aspire-E5-571G
    program         = nwchem
    date            = Sat Mar  4 23:32:04 2017

    compiled        = Mon_Feb_15_08:24:17_2016
    source          = /build/nwchem-MF0R1k/nwchem-6.6+r27746
    nwchem branch   = 6.6
    nwchem revision = 27746
    ga revision     = 10594
    input           = cubane.nw
    prefix          = cubane.
    data base       = ./cubane.db
    status          = startup
    nproc           =        1
    time left       =     -1s



           Memory information
           ------------------

    heap     =   13107198 doubles =    100.0 Mbytes
    stack    =   13107195 doubles =    100.0 Mbytes
    global   =   26214400 doubles =    200.0 Mbytes (distinct from heap & stack)
    total    =   52428793 doubles =    400.0 Mbytes
    verify   = yes
    hardfail = no 


           Directory information
           ---------------------

  0 permanent = .
  0 scratch   = .




                                NWChem Input Module
                                -------------------


                     cubane MP2/cc-pCVTZ geometry optimization
                     -----------------------------------------

 Scaling coordinates for geometry "geometry" by  1.889725989
 (inverse scale =  0.529177249)

 Turning off AUTOSYM since
 SYMMETRY directive was detected!


          ------
          auto-z
          ------


                             Geometry "geometry" -> ""
                             -------------------------

 Output coordinates in angstroms (scale by  1.889725989 to convert to a.u.)

  No.       Tag          Charge          X              Y              Z
 ---- ---------------- ---------- -------------- -------------- --------------
    1 H                    1.0000     1.41100000     1.41100000     1.41100000
    2 H                    1.0000    -1.41100000    -1.41100000     1.41100000
    3 H                    1.0000    -1.41100000     1.41100000    -1.41100000
    4 H                    1.0000     1.41100000    -1.41100000    -1.41100000
    5 H                    1.0000     1.41100000     1.41100000    -1.41100000
    6 H                    1.0000    -1.41100000    -1.41100000    -1.41100000
    7 H                    1.0000     1.41100000    -1.41100000     1.41100000
    8 H                    1.0000    -1.41100000     1.41100000     1.41100000
    9 C                    6.0000     0.78310000     0.78310000     0.78310000
   10 C                    6.0000    -0.78310000    -0.78310000     0.78310000
   11 C                    6.0000    -0.78310000     0.78310000    -0.78310000
   12 C                    6.0000     0.78310000    -0.78310000    -0.78310000
   13 C                    6.0000     0.78310000     0.78310000    -0.78310000
   14 C                    6.0000    -0.78310000    -0.78310000    -0.78310000
   15 C                    6.0000     0.78310000    -0.78310000     0.78310000
   16 C                    6.0000    -0.78310000     0.78310000     0.78310000

      Atomic Mass 
      ----------- 

      H                  1.007825
      C                 12.000000


 Effective nuclear repulsion energy (a.u.)     367.8392958775

            Nuclear Dipole moment (a.u.) 
            ----------------------------
        X                 Y               Z
 ---------------- ---------------- ----------------
     0.0000000000     0.0000000000     0.0000000000

      Symmetry information
      --------------------

 Group name              Oh       
 Group number             44
 Group order              48
 No. of unique centers     2

      Symmetry unique atoms

     1    9



                                Z-matrix (autoz)
                                -------- 

 Units are Angstrom for bonds and degrees for angles

      Type          Name      I     J     K     L     M      Value
      ----------- --------  ----- ----- ----- ----- ----- ----------
    1 Stretch                  1     9                       1.08755
    2 Stretch                  2    10                       1.08755
    3 Stretch                  3    11                       1.08755
    4 Stretch                  4    12                       1.08755
    5 Stretch                  5    13                       1.08755
    6 Stretch                  6    14                       1.08755
    7 Stretch                  7    15                       1.08755
    8 Stretch                  8    16                       1.08755
    9 Stretch                  9    13                       1.56620
   10 Stretch                  9    15                       1.56620
   11 Stretch                  9    16                       1.56620
   12 Stretch                 10    14                       1.56620
   13 Stretch                 10    15                       1.56620
   14 Stretch                 10    16                       1.56620
   15 Stretch                 11    13                       1.56620
   16 Stretch                 11    14                       1.56620
   17 Stretch                 11    16                       1.56620
   18 Stretch                 12    13                       1.56620
   19 Stretch                 12    14                       1.56620
   20 Stretch                 12    15                       1.56620
   21 Bend                     1     9    13               125.26439
   22 Bend                     1     9    15               125.26439
   23 Bend                     1     9    16               125.26439
   24 Bend                     2    10    14               125.26439
   25 Bend                     2    10    15               125.26439
   26 Bend                     2    10    16               125.26439
   27 Bend                     3    11    13               125.26439
   28 Bend                     3    11    14               125.26439
   29 Bend                     3    11    16               125.26439
   30 Bend                     4    12    13               125.26439
   31 Bend                     4    12    14               125.26439
   32 Bend                     4    12    15               125.26439
   33 Bend                     5    13     9               125.26439
   34 Bend                     5    13    11               125.26439
   35 Bend                     5    13    12               125.26439
   36 Bend                     6    14    10               125.26439
   37 Bend                     6    14    11               125.26439
   38 Bend                     6    14    12               125.26439
   39 Bend                     7    15     9               125.26439
   40 Bend                     7    15    10               125.26439
   41 Bend                     7    15    12               125.26439
   42 Bend                     8    16     9               125.26439
   43 Bend                     8    16    10               125.26439
   44 Bend                     8    16    11               125.26439
   45 Bend                     9    13    11                90.00000
   46 Bend                     9    13    12                90.00000
   47 Bend                     9    15    10                90.00000
   48 Bend                     9    15    12                90.00000
   49 Bend                     9    16    10                90.00000
   50 Bend                     9    16    11                90.00000
   51 Bend                    10    14    11                90.00000
   52 Bend                    10    14    12                90.00000
   53 Bend                    10    15    12                90.00000
   54 Bend                    10    16    11                90.00000
   55 Bend                    11    13    12                90.00000
   56 Bend                    11    14    12                90.00000
   57 Bend                    13     9    15                90.00000
   58 Bend                    13     9    16                90.00000
   59 Bend                    13    11    14                90.00000
   60 Bend                    13    11    16                90.00000
   61 Bend                    13    12    14                90.00000
   62 Bend                    13    12    15                90.00000
   63 Bend                    14    10    15                90.00000
   64 Bend                    14    10    16                90.00000
   65 Bend                    14    11    16                90.00000
   66 Bend                    14    12    15                90.00000
   67 Bend                    15     9    16                90.00000
   68 Bend                    15    10    16                90.00000
   69 Torsion                  1     9    13     5           0.00000
   70 Torsion                  1     9    13    11        -135.00000
   71 Torsion                  1     9    13    12         135.00000
   72 Torsion                  1     9    15     7           0.00000
   73 Torsion                  1     9    15    10         135.00000
   74 Torsion                  1     9    15    12        -135.00000
   75 Torsion                  1     9    16     8           0.00000
   76 Torsion                  1     9    16    10        -135.00000
   77 Torsion                  1     9    16    11         135.00000
   78 Torsion                  2    10    14     6           0.00000
   79 Torsion                  2    10    14    11         135.00000
   80 Torsion                  2    10    14    12        -135.00000
   81 Torsion                  2    10    15     7           0.00000
   82 Torsion                  2    10    15     9        -135.00000
   83 Torsion                  2    10    15    12         135.00000
   84 Torsion                  2    10    16     8           0.00000
   85 Torsion                  2    10    16     9         135.00000
   86 Torsion                  2    10    16    11        -135.00000
   87 Torsion                  3    11    13     5           0.00000
   88 Torsion                  3    11    13     9         135.00000
   89 Torsion                  3    11    13    12        -135.00000
   90 Torsion                  3    11    14     6           0.00000
   91 Torsion                  3    11    14    10        -135.00000
   92 Torsion                  3    11    14    12         135.00000
   93 Torsion                  3    11    16     8           0.00000
   94 Torsion                  3    11    16     9        -135.00000
   95 Torsion                  3    11    16    10         135.00000
   96 Torsion                  4    12    13     5           0.00000
   97 Torsion                  4    12    13     9        -135.00000
   98 Torsion                  4    12    13    11         135.00000
   99 Torsion                  4    12    14     6           0.00000
  100 Torsion                  4    12    14    10         135.00000
  101 Torsion                  4    12    14    11        -135.00000
  102 Torsion                  4    12    15     7           0.00000
  103 Torsion                  4    12    15     9         135.00000
  104 Torsion                  4    12    15    10        -135.00000
  105 Torsion                  5    13     9    15        -135.00000
  106 Torsion                  5    13     9    16         135.00000
  107 Torsion                  5    13    11    14         135.00000
  108 Torsion                  5    13    11    16        -135.00000
  109 Torsion                  5    13    12    14        -135.00000
  110 Torsion                  5    13    12    15         135.00000
  111 Torsion                  6    14    10    15         135.00000
  112 Torsion                  6    14    10    16        -135.00000
  113 Torsion                  6    14    11    13        -135.00000
  114 Torsion                  6    14    11    16         135.00000
  115 Torsion                  6    14    12    13         135.00000
  116 Torsion                  6    14    12    15        -135.00000
  117 Torsion                  7    15     9    13         135.00000
  118 Torsion                  7    15     9    16        -135.00000
  119 Torsion                  7    15    10    14        -135.00000
  120 Torsion                  7    15    10    16         135.00000
  121 Torsion                  7    15    12    13        -135.00000
  122 Torsion                  7    15    12    14         135.00000
  123 Torsion                  8    16     9    13        -135.00000
  124 Torsion                  8    16     9    15         135.00000
  125 Torsion                  8    16    10    14         135.00000
  126 Torsion                  8    16    10    15        -135.00000
  127 Torsion                  8    16    11    13         135.00000
  128 Torsion                  8    16    11    14        -135.00000
  129 Torsion                  9    13    11    14         -90.00000
  130 Torsion                  9    13    11    16           0.00000
  131 Torsion                  9    13    12    14          90.00000
  132 Torsion                  9    13    12    15           0.00000
  133 Torsion                  9    15    10    14          90.00000
  134 Torsion                  9    15    10    16           0.00000
  135 Torsion                  9    15    12    13           0.00000
  136 Torsion                  9    15    12    14         -90.00000
  137 Torsion                  9    16    10    14         -90.00000
  138 Torsion                  9    16    10    15           0.00000
  139 Torsion                  9    16    11    13           0.00000
  140 Torsion                  9    16    11    14          90.00000
  141 Torsion                 10    14    11    13          90.00000
  142 Torsion                 10    14    11    16           0.00000
  143 Torsion                 10    14    12    13         -90.00000
  144 Torsion                 10    14    12    15           0.00000
  145 Torsion                 10    15     9    13         -90.00000
  146 Torsion                 10    15     9    16           0.00000
  147 Torsion                 10    15    12    13          90.00000
  148 Torsion                 10    15    12    14           0.00000
  149 Torsion                 10    16     9    13          90.00000
  150 Torsion                 10    16     9    15           0.00000
  151 Torsion                 10    16    11    13         -90.00000
  152 Torsion                 10    16    11    14           0.00000
  153 Torsion                 11    13     9    15          90.00000
  154 Torsion                 11    13     9    16           0.00000
  155 Torsion                 11    13    12    14           0.00000
  156 Torsion                 11    13    12    15         -90.00000
  157 Torsion                 11    14    10    15         -90.00000
  158 Torsion                 11    14    10    16           0.00000
  159 Torsion                 11    14    12    13           0.00000
  160 Torsion                 11    14    12    15          90.00000
  161 Torsion                 11    16     9    13           0.00000
  162 Torsion                 11    16     9    15         -90.00000
  163 Torsion                 11    16    10    14           0.00000
  164 Torsion                 11    16    10    15          90.00000
  165 Torsion                 12    13     9    15           0.00000
  166 Torsion                 12    13     9    16         -90.00000
  167 Torsion                 12    13    11    14           0.00000
  168 Torsion                 12    13    11    16          90.00000
  169 Torsion                 12    14    10    15           0.00000
  170 Torsion                 12    14    10    16          90.00000
  171 Torsion                 12    14    11    13           0.00000
  172 Torsion                 12    14    11    16         -90.00000
  173 Torsion                 12    15     9    13           0.00000
  174 Torsion                 12    15     9    16          90.00000
  175 Torsion                 12    15    10    14           0.00000
  176 Torsion                 12    15    10    16         -90.00000


            XYZ format geometry
            -------------------
    16
 geometry
 H                     1.41100000     1.41100000     1.41100000
 H                    -1.41100000    -1.41100000     1.41100000
 H                    -1.41100000     1.41100000    -1.41100000
 H                     1.41100000    -1.41100000    -1.41100000
 H                     1.41100000     1.41100000    -1.41100000
 H                    -1.41100000    -1.41100000    -1.41100000
 H                     1.41100000    -1.41100000     1.41100000
 H                    -1.41100000     1.41100000     1.41100000
 C                     0.78310000     0.78310000     0.78310000
 C                    -0.78310000    -0.78310000     0.78310000
 C                    -0.78310000     0.78310000    -0.78310000
 C                     0.78310000    -0.78310000    -0.78310000
 C                     0.78310000     0.78310000    -0.78310000
 C                    -0.78310000    -0.78310000    -0.78310000
 C                     0.78310000    -0.78310000     0.78310000
 C                    -0.78310000     0.78310000     0.78310000

 ==============================================================================
                                internuclear distances
 ------------------------------------------------------------------------------
       center one      |      center two      | atomic units |  angstroms
 ------------------------------------------------------------------------------
    9 C                |   1 H                |     2.05518  |     1.08755
   10 C                |   2 H                |     2.05518  |     1.08755
   11 C                |   3 H                |     2.05518  |     1.08755
   12 C                |   4 H                |     2.05518  |     1.08755
   13 C                |   5 H                |     2.05518  |     1.08755
   13 C                |   9 C                |     2.95969  |     1.56620
   13 C                |  11 C                |     2.95969  |     1.56620
   13 C                |  12 C                |     2.95969  |     1.56620
   14 C                |   6 H                |     2.05518  |     1.08755
   14 C                |  10 C                |     2.95969  |     1.56620
   14 C                |  11 C                |     2.95969  |     1.56620
   14 C                |  12 C                |     2.95969  |     1.56620
   15 C                |   7 H                |     2.05518  |     1.08755
   15 C                |   9 C                |     2.95969  |     1.56620
   15 C                |  10 C                |     2.95969  |     1.56620
   15 C                |  12 C                |     2.95969  |     1.56620
   16 C                |   8 H                |     2.05518  |     1.08755
   16 C                |   9 C                |     2.95969  |     1.56620
   16 C                |  10 C                |     2.95969  |     1.56620
   16 C                |  11 C                |     2.95969  |     1.56620
 ------------------------------------------------------------------------------
                         number of included internuclear distances:         20
 ==============================================================================



 ==============================================================================
                                 internuclear angles
 ------------------------------------------------------------------------------
        center 1       |       center 2       |       center 3       |  degrees
 ------------------------------------------------------------------------------
    1 H                |   9 C                |  13 C                |   125.26
    1 H                |   9 C                |  15 C                |   125.26
    1 H                |   9 C                |  16 C                |   125.26
   13 C                |   9 C                |  15 C                |    90.00
   13 C                |   9 C                |  16 C                |    90.00
   15 C                |   9 C                |  16 C                |    90.00
    2 H                |  10 C                |  14 C                |   125.26
    2 H                |  10 C                |  15 C                |   125.26
    2 H                |  10 C                |  16 C                |   125.26
   14 C                |  10 C                |  15 C                |    90.00
   14 C                |  10 C                |  16 C                |    90.00
   15 C                |  10 C                |  16 C                |    90.00
    3 H                |  11 C                |  13 C                |   125.26
    3 H                |  11 C                |  14 C                |   125.26
    3 H                |  11 C                |  16 C                |   125.26
   13 C                |  11 C                |  14 C                |    90.00
   13 C                |  11 C                |  16 C                |    90.00
   14 C                |  11 C                |  16 C                |    90.00
    4 H                |  12 C                |  13 C                |   125.26
    4 H                |  12 C                |  14 C                |   125.26
    4 H                |  12 C                |  15 C                |   125.26
   13 C                |  12 C                |  14 C                |    90.00
   13 C                |  12 C                |  15 C                |    90.00
   14 C                |  12 C                |  15 C                |    90.00
    5 H                |  13 C                |   9 C                |   125.26
    5 H                |  13 C                |  11 C                |   125.26
    5 H                |  13 C                |  12 C                |   125.26
    9 C                |  13 C                |  11 C                |    90.00
    9 C                |  13 C                |  12 C                |    90.00
   11 C                |  13 C                |  12 C                |    90.00
    6 H                |  14 C                |  10 C                |   125.26
    6 H                |  14 C                |  11 C                |   125.26
    6 H                |  14 C                |  12 C                |   125.26
   10 C                |  14 C                |  11 C                |    90.00
   10 C                |  14 C                |  12 C                |    90.00
   11 C                |  14 C                |  12 C                |    90.00
    7 H                |  15 C                |   9 C                |   125.26
    7 H                |  15 C                |  10 C                |   125.26
    7 H                |  15 C                |  12 C                |   125.26
    9 C                |  15 C                |  10 C                |    90.00
    9 C                |  15 C                |  12 C                |    90.00
   10 C                |  15 C                |  12 C                |    90.00
    8 H                |  16 C                |   9 C                |   125.26
    8 H                |  16 C                |  10 C                |   125.26
    8 H                |  16 C                |  11 C                |   125.26
    9 C                |  16 C                |  10 C                |    90.00
    9 C                |  16 C                |  11 C                |    90.00
   10 C                |  16 C                |  11 C                |    90.00
 ------------------------------------------------------------------------------
                            number of included internuclear angles:         48
 ==============================================================================



  library name resolved from: environment
  library file name is: </home/vladimir/bin/nwchem-6.6/src/basis/libraries/>
  
                      Basis "ao basis" -> "" (spherical)
                      -----
  H (Hydrogen)
  ------------
            Exponent  Coefficients 
       -------------- ---------------------------------------------------------
  1 S  3.38700000E+01  0.006068
  1 S  5.09500000E+00  0.045308
  1 S  1.15900000E+00  0.202822

  2 S  3.25800000E-01  1.000000

  3 S  1.02700000E-01  1.000000

  4 P  1.40700000E+00  1.000000

  5 P  3.88000000E-01  1.000000

  6 D  1.05700000E+00  1.000000

  C (Carbon)
  ----------
            Exponent  Coefficients 
       -------------- ---------------------------------------------------------
  1 S  8.23600000E+03  0.000531
  1 S  1.23500000E+03  0.004108
  1 S  2.80800000E+02  0.021087
  1 S  7.92700000E+01  0.081853
  1 S  2.55900000E+01  0.234817
  1 S  8.99700000E+00  0.434401
  1 S  3.31900000E+00  0.346129
  1 S  3.64300000E-01 -0.008983

  2 S  8.23600000E+03 -0.000113
  2 S  1.23500000E+03 -0.000878
  2 S  2.80800000E+02 -0.004540
  2 S  7.92700000E+01 -0.018133
  2 S  2.55900000E+01 -0.055760
  2 S  8.99700000E+00 -0.126895
  2 S  3.31900000E+00 -0.170352
  2 S  3.64300000E-01  0.598684

  3 S  9.05900000E-01  1.000000

  4 S  1.28500000E-01  1.000000

  5 S  4.29200000E+00  1.000000

  6 S  1.18760000E+01  1.000000

  7 P  1.87100000E+01  0.014031
  7 P  4.13300000E+00  0.086866
  7 P  1.20000000E+00  0.290216

  8 P  3.82700000E-01  1.000000

  9 P  1.20900000E-01  1.000000

 10 P  8.77800000E+00  1.000000

 11 P  3.31900000E+01  1.000000

 12 D  1.09700000E+00  1.000000

 13 D  3.18000000E-01  1.000000

 14 D  1.48390000E+01  1.000000

 15 F  7.61000000E-01  1.000000



 Summary of "ao basis" -> "" (spherical)
 ------------------------------------------------------------------------------
       Tag                 Description            Shells   Functions and Types
 ---------------- ------------------------------  ------  ---------------------
 H                          cc-pVTZ                  6       14   3s2p1d
 C                          cc-pCVTZ                15       43   6s5p3d1f




                           NWChem Geometry Optimization
                           ----------------------------




                     cubane MP2/cc-pCVTZ geometry optimization


 maximum gradient threshold         (gmax) =   0.000450
 rms gradient threshold             (grms) =   0.000300
 maximum cartesian step threshold   (xmax) =   0.001800
 rms cartesian step threshold       (xrms) =   0.001200
 fixed trust radius                (trust) =   0.300000
 maximum step size to saddle      (sadstp) =   0.100000
 energy precision                  (eprec) =   1.0D-07
 maximum number of steps          (nptopt) =   20
 initial hessian option           (inhess) =    0
 line search option               (linopt) =    1
 hessian update option            (modupd) =    1
 saddle point option              (modsad) =    0
 initial eigen-mode to follow     (moddir) =    0
 initial variable to follow       (vardir) =    0
 follow first negative mode     (firstneg) =    T
 apply conjugacy                    (opcg) =    F
 source of zmatrix                         =   autoz   


          -------------------
          Energy Minimization
          -------------------


 Names of Z-matrix variables 
    1              2              3              4              5         
    6              7              8              9             10         
   11             12             13             14             15         
   16             17             18             19             20         
   21             22             23             24             25         
   26             27             28             29             30         
   31             32             33             34             35         
   36             37             38             39             40         
   41             42             43             44             45         
   46             47             48             49             50         
   51             52             53             54             55         
   56             57             58             59             60         
   61             62             63             64             65         
   66             67             68             69             70         
   71             72             73             74             75         
   76             77             78             79             80         
   81             82             83             84             85         
   86             87             88             89             90         
   91             92             93             94             95         
   96             97             98             99            100         
  101            102            103            104            105         
  106            107            108            109            110         
  111            112            113            114            115         
  116            117            118            119            120         
  121            122            123            124            125         
  126            127            128            129            130         
  131            132            133            134            135         
  136            137            138            139            140         
  141            142            143            144            145         
  146            147            148            149            150         
  151            152            153            154            155         
  156            157            158            159            160         
  161            162            163            164            165         
  166            167            168            169            170         
  171            172            173            174            175         
  176         

 Variables with the same non-blank name are constrained to be equal


 Using diagonal initial Hessian 
 Scaling for Hessian diagonals: bonds = 1.00  angles = 0.25  torsions = 0.10

          --------
          Step   0
          --------


                         Geometry "geometry" -> "geometry"
                         ---------------------------------

 Output coordinates in angstroms (scale by  1.889725989 to convert to a.u.)

  No.       Tag          Charge          X              Y              Z
 ---- ---------------- ---------- -------------- -------------- --------------
    1 H                    1.0000     1.41100000     1.41100000     1.41100000
    2 H                    1.0000    -1.41100000    -1.41100000     1.41100000
    3 H                    1.0000    -1.41100000     1.41100000    -1.41100000
    4 H                    1.0000     1.41100000    -1.41100000    -1.41100000
    5 H                    1.0000     1.41100000     1.41100000    -1.41100000
    6 H                    1.0000    -1.41100000    -1.41100000    -1.41100000
    7 H                    1.0000     1.41100000    -1.41100000     1.41100000
    8 H                    1.0000    -1.41100000     1.41100000     1.41100000
    9 C                    6.0000     0.78310000     0.78310000     0.78310000
   10 C                    6.0000    -0.78310000    -0.78310000     0.78310000
   11 C                    6.0000    -0.78310000     0.78310000    -0.78310000
   12 C                    6.0000     0.78310000    -0.78310000    -0.78310000
   13 C                    6.0000     0.78310000     0.78310000    -0.78310000
   14 C                    6.0000    -0.78310000    -0.78310000    -0.78310000
   15 C                    6.0000     0.78310000    -0.78310000     0.78310000
   16 C                    6.0000    -0.78310000     0.78310000     0.78310000

      Atomic Mass 
      ----------- 

      H                  1.007825
      C                 12.000000


 Effective nuclear repulsion energy (a.u.)     367.8392958775

            Nuclear Dipole moment (a.u.) 
            ----------------------------
        X                 Y               Z
 ---------------- ---------------- ----------------
     0.0000000000     0.0000000000     0.0000000000

      Symmetry information
      --------------------

 Group name              Oh       
 Group number             44
 Group order              48
 No. of unique centers     2

      Symmetry unique atoms

     1    9

                                 NWChem SCF Module
                                 -----------------


                     cubane MP2/cc-pCVTZ geometry optimization



  ao basis        = "ao basis"
  functions       =   456
  atoms           =    16
  closed shells   =    28
  open shells     =     0
  charge          =   0.00
  wavefunction    = RHF 
  input vectors   = atomic
  output vectors  = ./cubane.movecs
  use symmetry    = T
  symmetry adapt  = T


 Summary of "ao basis" -> "ao basis" (spherical)
 ------------------------------------------------------------------------------
       Tag                 Description            Shells   Functions and Types
 ---------------- ------------------------------  ------  ---------------------
 H                          cc-pVTZ                  6       14   3s2p1d
 C                          cc-pCVTZ                15       43   6s5p3d1f


      Symmetry analysis of basis
      --------------------------

        a1g        22
        a1u         1
        a2g         1
        a2u        22
        eg         34
        eu         34
        t1g        54
        t1u       117
        t2g       117
        t2u        54


 Forming initial guess at       1.7s


 !! The overlap matrix has   1 vectors deemed linearly dependent with
    eigenvalues:
 8.59D-06


      Superposition of Atomic Density Guess
      -------------------------------------

 Sum of atomic energies:        -305.36259423

      Non-variational initial energy
      ------------------------------

 Total energy =    -311.925105
 1-e energy   =   -1138.586362
 2-e energy   =     458.821961
 HOMO         =      -0.294286
 LUMO         =       0.041657


      Symmetry analysis of molecular orbitals - initial
      -------------------------------------------------

  Numbering of irreducible representations: 

     1 a1g         2 a1u         3 a2g         4 a2u         5 eg      
     6 eu          7 t1g         8 t1u         9 t2g        10 t2u     

  Orbital symmetries:

     1 a1g         2 t1u         3 t1u         4 t1u         5 t2g     
     6 t2g         7 t2g         8 a2u         9 a1g        10 t1u     
    11 t1u        12 t1u        13 t2g        14 t2g        15 t2g     
    16 a1g        17 a2u        18 eg         19 eg         20 t1u     
    21 t1u        22 t1u        23 t2u        24 t2u        25 t2u     
    26 t2g        27 t2g        28 t2g        29 t1u        30 t1u     
    31 t1u        32 a1g        33 t2g        34 t2g        35 t2g     
    36 t1u        37 t1u        38 t1u     


 Starting SCF solution at      29.2s



 ----------------------------------------------
         Quadratically convergent ROHF

 Convergence threshold     :          1.000E-06
 Maximum no. of iterations :           30
 Final Fock-matrix accuracy:          1.000E-10
 ----------------------------------------------


              iter       energy          gnorm     gmax       time
             ----- ------------------- --------- --------- --------
                 1     -307.3996078143  9.85D-01  2.26D-01     56.5
                 2     -307.4785243505  3.08D-01  4.85D-02     86.8
                 3     -307.4866943402  9.35D-03  1.42D-03    166.7
                 4     -307.4867041804  1.42D-05  3.21D-06    292.7
                 5     -307.4867041804  1.87D-08  3.96D-09    419.1


       Final RHF  results 
       ------------------ 

         Total SCF energy =   -307.486704180401
      One-electron energy =  -1145.029543316345
      Two-electron energy =    469.703543258479
 Nuclear repulsion energy =    367.839295877465

        Time for solution =    392.2s



       Symmetry analysis of molecular orbitals - final
       -----------------------------------------------

  Numbering of irreducible representations: 

     1 a1g         2 a1u         3 a2g         4 a2u         5 eg      
     6 eu          7 t1g         8 t1u         9 t2g        10 t2u     

  Orbital symmetries:

     1 a1g         2 t1u         3 t1u         4 t1u         5 t2g     
     6 t2g         7 t2g         8 a2u         9 a1g        10 t1u     
    11 t1u        12 t1u        13 t2g        14 t2g        15 t2g     
    16 a1g        17 a2u        18 t1u        19 t1u        20 t1u     
    21 eg         22 eg         23 t2u        24 t2u        25 t2u     
    26 t2g        27 t2g        28 t2g        29 a1g        30 t1u     
    31 t1u        32 t1u        33 t2g        34 t2g        35 t2g     
    36 t1u        37 t1u        38 t1u     

             Final eigenvalues
             -----------------

              1      
    1  -11.2207
    2  -11.2203
    3  -11.2203
    4  -11.2203
    5  -11.2197
    6  -11.2197
    7  -11.2197
    8  -11.2192
    9   -1.2444
   10   -0.9784
   11   -0.9784
   12   -0.9784
   13   -0.7672
   14   -0.7672
   15   -0.7672
   16   -0.7100
   17   -0.6406
   18   -0.5798
   19   -0.5798
   20   -0.5798
   21   -0.5797
   22   -0.5797
   23   -0.3905
   24   -0.3905
   25   -0.3905
   26   -0.3832
   27   -0.3832
   28   -0.3832
   29    0.1440
   30    0.1623
   31    0.1623
   32    0.1623
   33    0.1972
   34    0.1972
   35    0.1972
   36    0.2227
   37    0.2227
   38    0.2227

                       ROHF Final Molecular Orbital Analysis
                       -------------------------------------

 Vector    9  Occ=2.000000D+00  E=-1.244405D+00  Symmetry=a1g
              MO Center=  5.3D-17,  5.1D-17, -1.4D-18, r^2= 1.6D+00
   Bfn.  Coefficient  Atom+Function         Bfn.  Coefficient  Atom+Function  
  ----- ------------  ---------------      ----- ------------  ---------------
   114      0.157531   9 C  s               157      0.157531  10 C  s         
   200      0.157531  11 C  s               243      0.157531  12 C  s         
   286      0.157531  13 C  s               329      0.157531  14 C  s         
   372      0.157531  15 C  s               415      0.157531  16 C  s         

 Vector   10  Occ=2.000000D+00  E=-9.783809D-01  Symmetry=t1u
              MO Center=  5.9D-17, -2.8D-17,  1.0D-16, r^2= 2.6D+00
   Bfn.  Coefficient  Atom+Function         Bfn.  Coefficient  Atom+Function  
  ----- ------------  ---------------      ----- ------------  ---------------
   200      0.222430  11 C  s               372     -0.222430  15 C  s         
   114     -0.188044   9 C  s               329      0.188044  14 C  s         

 Vector   11  Occ=2.000000D+00  E=-9.783809D-01  Symmetry=t1u
              MO Center= -2.2D-15, -1.3D-15,  3.9D-15, r^2= 2.6D+00
   Bfn.  Coefficient  Atom+Function         Bfn.  Coefficient  Atom+Function  
  ----- ------------  ---------------      ----- ------------  ---------------
   157      0.256567  10 C  s               286     -0.256567  13 C  s         
   114     -0.196391   9 C  s               329      0.196391  14 C  s         

 Vector   12  Occ=2.000000D+00  E=-9.783809D-01  Symmetry=t1u
              MO Center= -2.3D-15,  4.7D-15, -7.5D-16, r^2= 2.6D+00
   Bfn.  Coefficient  Atom+Function         Bfn.  Coefficient  Atom+Function  
  ----- ------------  ---------------      ----- ------------  ---------------
   243      0.263108  12 C  s               415     -0.263108  16 C  s         
   200     -0.178316  11 C  s               372      0.178316  15 C  s         

 Vector   13  Occ=2.000000D+00  E=-7.671950D-01  Symmetry=t2g
              MO Center=  1.7D-15, -5.3D-16, -5.2D-15, r^2= 4.1D+00
   Bfn.  Coefficient  Atom+Function         Bfn.  Coefficient  Atom+Function  
  ----- ------------  ---------------      ----- ------------  ---------------
   114      0.203990   9 C  s               329      0.203990  14 C  s         
   116      0.169765   9 C  s               331      0.169765  14 C  s         

 Vector   14  Occ=2.000000D+00  E=-7.671950D-01  Symmetry=t2g
              MO Center= -2.4D-16, -1.2D-17,  5.0D-16, r^2= 4.1D+00
   Bfn.  Coefficient  Atom+Function         Bfn.  Coefficient  Atom+Function  
  ----- ------------  ---------------      ----- ------------  ---------------
   200      0.179172  11 C  s               372      0.179172  15 C  s         
   243     -0.168569  12 C  s               415     -0.168569  16 C  s         

 Vector   15  Occ=2.000000D+00  E=-7.671950D-01  Symmetry=t2g
              MO Center=  8.5D-15, -2.0D-15, -6.3D-15, r^2= 4.1D+00
   Bfn.  Coefficient  Atom+Function         Bfn.  Coefficient  Atom+Function  
  ----- ------------  ---------------      ----- ------------  ---------------
   157      0.178579  10 C  s               286      0.178579  13 C  s         
   243     -0.174447  12 C  s               415     -0.174447  16 C  s         

 Vector   16  Occ=2.000000D+00  E=-7.099629D-01  Symmetry=a1g
              MO Center=  8.3D-16,  1.5D-15, -3.2D-16, r^2= 4.3D+00
   Bfn.  Coefficient  Atom+Function         Bfn.  Coefficient  Atom+Function  
  ----- ------------  ---------------      ----- ------------  ---------------
     2      0.087951   1 H  s                16      0.087951   2 H  s         
    30      0.087951   3 H  s                44      0.087951   4 H  s         
    58      0.087951   5 H  s                72      0.087951   6 H  s         
    86      0.087951   7 H  s               100      0.087951   8 H  s         

 Vector   17  Occ=2.000000D+00  E=-6.405882D-01  Symmetry=a2u
              MO Center= -3.2D-16, -4.7D-16, -3.7D-15, r^2= 5.1D+00
   Bfn.  Coefficient  Atom+Function         Bfn.  Coefficient  Atom+Function  
  ----- ------------  ---------------      ----- ------------  ---------------
   114      0.116690   9 C  s               157      0.116690  10 C  s         
   200      0.116690  11 C  s               243      0.116690  12 C  s         
   286     -0.116690  13 C  s               329     -0.116690  14 C  s         
   372     -0.116690  15 C  s               415     -0.116690  16 C  s         

 Vector   18  Occ=2.000000D+00  E=-5.797756D-01  Symmetry=t1u
              MO Center=  5.3D-16, -1.1D-15,  6.1D-16, r^2= 4.2D+00
   Bfn.  Coefficient  Atom+Function         Bfn.  Coefficient  Atom+Function  
  ----- ------------  ---------------      ----- ------------  ---------------
    16      0.134273   2 H  s                58     -0.134273   5 H  s         

 Vector   19  Occ=2.000000D+00  E=-5.797756D-01  Symmetry=t1u
              MO Center= -1.5D-15, -4.5D-15,  6.5D-15, r^2= 4.2D+00
   Bfn.  Coefficient  Atom+Function         Bfn.  Coefficient  Atom+Function  
  ----- ------------  ---------------      ----- ------------  ---------------
     2      0.121552   1 H  s                72     -0.121552   6 H  s         

 Vector   20  Occ=2.000000D+00  E=-5.797756D-01  Symmetry=t1u
              MO Center= -7.2D-16,  0.0D+00, -9.2D-16, r^2= 4.2D+00
   Bfn.  Coefficient  Atom+Function         Bfn.  Coefficient  Atom+Function  
  ----- ------------  ---------------      ----- ------------  ---------------
    44      0.139905   4 H  s               100     -0.139905   8 H  s         

 Vector   21  Occ=2.000000D+00  E=-5.796530D-01  Symmetry=eg
              MO Center=  1.1D-16, -4.2D-16,  5.4D-17, r^2= 2.6D+00
   Bfn.  Coefficient  Atom+Function         Bfn.  Coefficient  Atom+Function  
  ----- ------------  ---------------      ----- ------------  ---------------
   124      0.112629   9 C  pz              167      0.112629  10 C  pz        
   210     -0.112629  11 C  pz              253     -0.112629  12 C  pz        
   296     -0.112629  13 C  pz              339     -0.112629  14 C  pz        
   382      0.112629  15 C  pz              425      0.112629  16 C  pz        

 Vector   22  Occ=2.000000D+00  E=-5.796530D-01  Symmetry=eg
              MO Center= -1.1D-16, -1.6D-16,  3.6D-17, r^2= 2.6D+00
   Bfn.  Coefficient  Atom+Function         Bfn.  Coefficient  Atom+Function  
  ----- ------------  ---------------      ----- ------------  ---------------
   122      0.120131   9 C  px              165     -0.120131  10 C  px        
   208     -0.120131  11 C  px              251      0.120131  12 C  px        
   294      0.120131  13 C  px              337     -0.120131  14 C  px        
   380      0.120131  15 C  px              423     -0.120131  16 C  px        

 Vector   23  Occ=2.000000D+00  E=-3.904789D-01  Symmetry=t2u
              MO Center=  5.9D-15,  2.2D-14, -3.3D-14, r^2= 2.9D+00
   Bfn.  Coefficient  Atom+Function         Bfn.  Coefficient  Atom+Function  
  ----- ------------  ---------------      ----- ------------  ---------------
   166     -0.133282  10 C  py              252      0.133282  12 C  py        
   295     -0.133282  13 C  py              424      0.133282  16 C  py        
   124      0.126109   9 C  pz              167     -0.126109  10 C  pz        
   296     -0.126109  13 C  pz              339      0.126109  14 C  pz        

 Vector   24  Occ=2.000000D+00  E=-3.904789D-01  Symmetry=t2u
              MO Center=  4.1D-15,  3.8D-17,  6.1D-16, r^2= 2.9D+00
   Bfn.  Coefficient  Atom+Function         Bfn.  Coefficient  Atom+Function  
  ----- ------------  ---------------      ----- ------------  ---------------
   122      0.164153   9 C  px              251     -0.164153  12 C  px        
   337      0.164153  14 C  px              423     -0.164153  16 C  px        

 Vector   25  Occ=2.000000D+00  E=-3.904789D-01  Symmetry=t2u
              MO Center= -2.7D-15, -5.9D-16,  1.2D-15, r^2= 2.9D+00
   Bfn.  Coefficient  Atom+Function         Bfn.  Coefficient  Atom+Function  
  ----- ------------  ---------------      ----- ------------  ---------------
   165      0.165774  10 C  px              208     -0.165774  11 C  px        
   294      0.165774  13 C  px              380     -0.165774  15 C  px        

 Vector   26  Occ=2.000000D+00  E=-3.831763D-01  Symmetry=t2g
              MO Center= -1.1D-14,  5.1D-14,  8.8D-14, r^2= 3.5D+00
   Bfn.  Coefficient  Atom+Function         Bfn.  Coefficient  Atom+Function  
  ----- ------------  ---------------      ----- ------------  ---------------
   159      0.161595  10 C  s               288      0.161595  13 C  s         

 Vector   27  Occ=2.000000D+00  E=-3.831763D-01  Symmetry=t2g
              MO Center=  7.1D-15, -1.5D-14,  6.4D-15, r^2= 3.5D+00
   Bfn.  Coefficient  Atom+Function         Bfn.  Coefficient  Atom+Function  
  ----- ------------  ---------------      ----- ------------  ---------------
   245     -0.139571  12 C  s               417     -0.139571  16 C  s         
   202      0.138373  11 C  s               374      0.138373  15 C  s         
   209     -0.137683  11 C  py              252     -0.137790  12 C  py        
   381      0.137683  15 C  py              424      0.137790  16 C  py        
   123     -0.129607   9 C  py              166     -0.129500  10 C  py        

 Vector   28  Occ=2.000000D+00  E=-3.831763D-01  Symmetry=t2g
              MO Center=  2.8D-14, -3.1D-14,  7.7D-15, r^2= 3.5D+00
   Bfn.  Coefficient  Atom+Function         Bfn.  Coefficient  Atom+Function  
  ----- ------------  ---------------      ----- ------------  ---------------
   124     -0.146886   9 C  pz              339      0.146886  14 C  pz        
   210     -0.144809  11 C  pz              382      0.144809  15 C  pz        
   253     -0.142431  12 C  pz              425      0.142431  16 C  pz        
   167     -0.140354  10 C  pz              296      0.140354  13 C  pz        
   116      0.136673   9 C  s               331      0.136673  14 C  s         

 Vector   29  Occ=0.000000D+00  E= 1.439654D-01  Symmetry=a1g
              MO Center=  2.3D-14,  5.5D-14, -4.8D-14, r^2= 1.3D+01
   Bfn.  Coefficient  Atom+Function         Bfn.  Coefficient  Atom+Function  
  ----- ------------  ---------------      ----- ------------  ---------------
     3      0.956615   1 H  s                17      0.956615   2 H  s         
    31      0.956615   3 H  s                45      0.956615   4 H  s         
    59      0.956615   5 H  s                73      0.956615   6 H  s         
    87      0.956615   7 H  s               101      0.956615   8 H  s         
   116     -0.802753   9 C  s               159     -0.802753  10 C  s         

 Vector   30  Occ=0.000000D+00  E= 1.622752D-01  Symmetry=t1u
              MO Center=  2.6D-14, -1.5D-14, -1.4D-14, r^2= 1.1D+01
   Bfn.  Coefficient  Atom+Function         Bfn.  Coefficient  Atom+Function  
  ----- ------------  ---------------      ----- ------------  ---------------
   245      1.795151  12 C  s               417     -1.795151  16 C  s         
    45     -1.381990   4 H  s               101      1.381990   8 H  s         
   159     -1.023772  10 C  s               288      1.023772  13 C  s         
   202     -0.885742  11 C  s               374      0.885742  15 C  s         
    17      0.788147   2 H  s                59     -0.788147   5 H  s         

 Vector   31  Occ=0.000000D+00  E= 1.622752D-01  Symmetry=t1u
              MO Center= -1.9D-15, -7.2D-16,  7.6D-15, r^2= 1.1D+01
   Bfn.  Coefficient  Atom+Function         Bfn.  Coefficient  Atom+Function  
  ----- ------------  ---------------      ----- ------------  ---------------
   116      1.924594   9 C  s               331     -1.924594  14 C  s         
     3     -1.481641   1 H  s                73      1.481641   6 H  s         
   202     -0.835170  11 C  s               374      0.835170  15 C  s         
   245     -0.736157  12 C  s               417      0.736157  16 C  s         
    31      0.642953   3 H  s                87     -0.642953   7 H  s         

 Vector   32  Occ=0.000000D+00  E= 1.622752D-01  Symmetry=t1u
              MO Center=  4.0D-15, -8.5D-14,  6.3D-14, r^2= 1.1D+01
   Bfn.  Coefficient  Atom+Function         Bfn.  Coefficient  Atom+Function  
  ----- ------------  ---------------      ----- ------------  ---------------
   159      1.621208  10 C  s               288     -1.621208  13 C  s         
   202     -1.522883  11 C  s               374      1.522883  15 C  s         
    17     -1.248081   2 H  s                59      1.248081   5 H  s         
    31      1.172386   3 H  s                87     -1.172386   7 H  s         
   211      0.528709  11 C  px              383      0.528709  15 C  px        

 Vector   33  Occ=0.000000D+00  E= 1.972299D-01  Symmetry=t2g
              MO Center=  6.9D-15, -1.8D-14, -1.5D-14, r^2= 1.4D+01
   Bfn.  Coefficient  Atom+Function         Bfn.  Coefficient  Atom+Function  
  ----- ------------  ---------------      ----- ------------  ---------------
    45      2.551768   4 H  s               101      2.551768   8 H  s         
   254     -1.708656  12 C  px              426      1.708656  16 C  px        
   256      1.558857  12 C  pz              428     -1.558857  16 C  pz        
   255      1.539503  12 C  py              427     -1.539503  16 C  py        
    17     -1.464705   2 H  s                59     -1.464705   5 H  s         

 Vector   34  Occ=0.000000D+00  E= 1.972299D-01  Symmetry=t2g
              MO Center=  2.1D-15,  4.0D-15,  7.3D-15, r^2= 1.4D+01
   Bfn.  Coefficient  Atom+Function         Bfn.  Coefficient  Atom+Function  
  ----- ------------  ---------------      ----- ------------  ---------------
     3      2.529887   1 H  s                73      2.529887   6 H  s         
   126     -1.694110   9 C  py              341      1.694110  14 C  py        
    17     -1.667625   2 H  s                59     -1.667625   5 H  s         
   125     -1.567433   9 C  px              340      1.567433  14 C  px        
   127     -1.504255   9 C  pz              342      1.504255  14 C  pz        

 Vector   35  Occ=0.000000D+00  E= 1.972299D-01  Symmetry=t2g
              MO Center= -4.9D-15,  1.0D-14,  1.2D-15, r^2= 1.4D+01
   Bfn.  Coefficient  Atom+Function         Bfn.  Coefficient  Atom+Function  
  ----- ------------  ---------------      ----- ------------  ---------------
    31      2.465206   3 H  s                87      2.465206   7 H  s         
    17     -1.677275   2 H  s                59     -1.677275   5 H  s         
   213      1.668271  11 C  pz              385     -1.668271  15 C  pz        
   212     -1.515234  11 C  py              384      1.515234  15 C  py        
   211      1.460446  11 C  px              383     -1.460446  15 C  px        

 Vector   36  Occ=0.000000D+00  E= 2.226670D-01  Symmetry=t1u
              MO Center= -1.6D-13, -9.4D-14, -3.4D-13, r^2= 9.0D+00
   Bfn.  Coefficient  Atom+Function         Bfn.  Coefficient  Atom+Function  
  ----- ------------  ---------------      ----- ------------  ---------------
     3      1.473123   1 H  s                73     -1.473123   6 H  s         
   126     -1.253158   9 C  py              341     -1.253158  14 C  py        
    45     -1.144966   4 H  s               101      1.144966   8 H  s         
   255     -1.128978  12 C  py              427     -1.128978  16 C  py        
   169     -0.974803  10 C  py              298     -0.974803  13 C  py        

 Vector   37  Occ=0.000000D+00  E= 2.226670D-01  Symmetry=t1u
              MO Center= -1.3D-14,  1.8D-14, -4.2D-14, r^2= 9.0D+00
   Bfn.  Coefficient  Atom+Function         Bfn.  Coefficient  Atom+Function  
  ----- ------------  ---------------      ----- ------------  ---------------
    31      1.554179   3 H  s                87     -1.554179   7 H  s         
   213      1.261219  11 C  pz              385      1.261219  15 C  pz        
   170      1.075811  10 C  pz              299      1.075811  13 C  pz        
    17     -1.064222   2 H  s                59      1.064222   5 H  s         
   202      1.020306  11 C  s               374     -1.020306  15 C  s         

 Vector   38  Occ=0.000000D+00  E= 2.226670D-01  Symmetry=t1u
              MO Center= -3.1D-14, -3.9D-15,  3.7D-14, r^2= 9.0D+00
   Bfn.  Coefficient  Atom+Function         Bfn.  Coefficient  Atom+Function  
  ----- ------------  ---------------      ----- ------------  ---------------
    45     -1.327457   4 H  s               101      1.327457   8 H  s         
   254      1.226981  12 C  px              426      1.226981  16 C  px        
    17      1.211575   2 H  s                59     -1.211575   5 H  s         
   168      1.183130  10 C  px              297      1.183130  13 C  px        
   211      1.008180  11 C  px              383      1.008180  15 C  px        

 Vector   39  Occ=0.000000D+00  E= 2.283107D-01  Symmetry=a2u
              MO Center=  1.1D-16, -8.1D-15, -3.4D-14, r^2= 1.5D+01
   Bfn.  Coefficient  Atom+Function         Bfn.  Coefficient  Atom+Function  
  ----- ------------  ---------------      ----- ------------  ---------------
     3      1.776916   1 H  s                17      1.776916   2 H  s         
    31      1.776916   3 H  s                45      1.776916   4 H  s         
    59     -1.776916   5 H  s                73     -1.776916   6 H  s         
    87     -1.776916   7 H  s               101     -1.776916   8 H  s         
   125     -0.992848   9 C  px              126     -0.992848   9 C  py        

 Vector   40  Occ=0.000000D+00  E= 3.490104D-01  Symmetry=t1g
              MO Center=  2.5D-15,  2.6D-15, -1.4D-14, r^2= 5.9D+00
   Bfn.  Coefficient  Atom+Function         Bfn.  Coefficient  Atom+Function  
  ----- ------------  ---------------      ----- ------------  ---------------
   169     -1.175999  10 C  py              255      1.175999  12 C  py        
   298      1.175999  13 C  py              427     -1.175999  16 C  py        
   127      1.133425   9 C  pz              170     -1.133425  10 C  pz        
   299      1.133425  13 C  pz              342     -1.133425  14 C  pz        
   213      0.795188  11 C  pz              256     -0.795188  12 C  pz        

 Vector   41  Occ=0.000000D+00  E= 3.490104D-01  Symmetry=t1g
              MO Center= -4.3D-15,  1.9D-15,  2.8D-15, r^2= 5.9D+00
   Bfn.  Coefficient  Atom+Function         Bfn.  Coefficient  Atom+Function  
  ----- ------------  ---------------      ----- ------------  ---------------
   125      1.345561   9 C  px              254     -1.345561  12 C  px        
   340     -1.345561  14 C  px              426      1.345561  16 C  px        
   213      1.056126  11 C  pz              256     -1.056126  12 C  pz        
   385     -1.056126  15 C  pz              428      1.056126  16 C  pz        
   126     -0.809937   9 C  py              212      0.809937  11 C  py        

 Vector   42  Occ=0.000000D+00  E= 3.490104D-01  Symmetry=t1g
              MO Center=  1.2D-15,  1.6D-15, -1.3D-15, r^2= 5.9D+00
   Bfn.  Coefficient  Atom+Function         Bfn.  Coefficient  Atom+Function  
  ----- ------------  ---------------      ----- ------------  ---------------
   168      1.394340  10 C  px              211     -1.394340  11 C  px        
   297     -1.394340  13 C  px              383      1.394340  15 C  px        
   126      0.885538   9 C  py              212     -0.885538  11 C  py        
   341     -0.885538  14 C  py              384      0.885538  15 C  py        
   169     -0.734751  10 C  py              255      0.734751  12 C  py        

 Vector   43  Occ=0.000000D+00  E= 3.626880D-01  Symmetry=t2g
              MO Center= -1.5D-13,  3.8D-14,  2.1D-13, r^2= 9.9D+00
   Bfn.  Coefficient  Atom+Function         Bfn.  Coefficient  Atom+Function  
  ----- ------------  ---------------      ----- ------------  ---------------
   159      8.786006  10 C  s               288      8.786006  13 C  s         
   245     -8.601627  12 C  s               417     -8.601627  16 C  s         
   169      3.648277  10 C  py              298     -3.648277  13 C  py        
   255     -3.627469  12 C  py              427      3.627469  16 C  py        
   170     -2.740193  10 C  pz              299      2.740193  13 C  pz        

 Vector   44  Occ=0.000000D+00  E= 3.626880D-01  Symmetry=t2g
              MO Center=  2.9D-15, -5.6D-14,  6.1D-14, r^2= 9.9D+00
   Bfn.  Coefficient  Atom+Function         Bfn.  Coefficient  Atom+Function  
  ----- ------------  ---------------      ----- ------------  ---------------
   202      7.781852  11 C  s               374      7.781852  15 C  s         
   159     -6.619809  10 C  s               288     -6.619809  13 C  s         
   245     -6.026973  12 C  s               417     -6.026973  16 C  s         
   116      4.864930   9 C  s               331      4.864930  14 C  s         
   211      3.078711  11 C  px              383     -3.078711  15 C  px        

 Vector   45  Occ=0.000000D+00  E= 3.626880D-01  Symmetry=t2g
              MO Center=  1.6D-13,  7.2D-14,  1.0D-13, r^2= 9.9D+00
   Bfn.  Coefficient  Atom+Function         Bfn.  Coefficient  Atom+Function  
  ----- ------------  ---------------      ----- ------------  ---------------
   116      9.619926   9 C  s               331      9.619926  14 C  s         
   202     -7.523274  11 C  s               374     -7.523274  15 C  s         
   126     -3.705037   9 C  py              341      3.705037  14 C  py        
   245     -3.600817  12 C  s               417     -3.600817  16 C  s         
   212      3.468427  11 C  py              384     -3.468427  15 C  py        

 Vector   46  Occ=0.000000D+00  E= 3.735191D-01  Symmetry=eg
              MO Center= -1.0D-15,  9.5D-17, -1.1D-16, r^2= 6.7D+00
   Bfn.  Coefficient  Atom+Function         Bfn.  Coefficient  Atom+Function  
  ----- ------------  ---------------      ----- ------------  ---------------
   125      0.274305   9 C  px              168     -0.274305  10 C  px        
   211     -0.274305  11 C  px              254      0.274305  12 C  px        
   297      0.274305  13 C  px              340     -0.274305  14 C  px        
   383      0.274305  15 C  px              426     -0.274305  16 C  px        
   127     -0.241720   9 C  pz              170     -0.241720  10 C  pz        

 Vector   47  Occ=0.000000D+00  E= 3.735191D-01  Symmetry=eg
              MO Center= -7.4D-17, -2.2D-15,  1.9D-16, r^2= 6.7D+00
   Bfn.  Coefficient  Atom+Function         Bfn.  Coefficient  Atom+Function  
  ----- ------------  ---------------      ----- ------------  ---------------
   126      0.297927   9 C  py              169     -0.297927  10 C  py        
   212      0.297927  11 C  py              255     -0.297927  12 C  py        
   298      0.297927  13 C  py              341     -0.297927  14 C  py        
   384     -0.297927  15 C  py              427      0.297927  16 C  py        
   123     -0.241423   9 C  py              166      0.241423  10 C  py        

 Vector   48  Occ=0.000000D+00  E= 3.782376D-01  Symmetry=a1g
              MO Center= -6.8D-15, -6.1D-15,  1.3D-15, r^2= 5.9D+00
   Bfn.  Coefficient  Atom+Function         Bfn.  Coefficient  Atom+Function  
  ----- ------------  ---------------      ----- ------------  ---------------
     2      0.387369   1 H  s                16      0.387369   2 H  s         
    30      0.387369   3 H  s                44      0.387369   4 H  s         
    58      0.387369   5 H  s                72      0.387369   6 H  s         
    86      0.387369   7 H  s               100      0.387369   8 H  s         
     3     -0.216358   1 H  s                17     -0.216358   2 H  s         

 Vector   49  Occ=0.000000D+00  E= 4.333418D-01  Symmetry=t2u
              MO Center=  6.5D-15, -1.8D-16, -2.8D-17, r^2= 7.9D+00
   Bfn.  Coefficient  Atom+Function         Bfn.  Coefficient  Atom+Function  
  ----- ------------  ---------------      ----- ------------  ---------------
   125      0.667977   9 C  px              254     -0.667977  12 C  px        
   340      0.667977  14 C  px              426     -0.667977  16 C  px        
   213      0.536572  11 C  pz              256     -0.536572  12 C  pz        
   385      0.536572  15 C  pz              428     -0.536572  16 C  pz        
   127     -0.374192   9 C  pz              170      0.374192  10 C  pz        

 Vector   50  Occ=0.000000D+00  E= 4.333418D-01  Symmetry=t2u
              MO Center=  3.5D-16,  2.9D-15, -2.5D-15, r^2= 7.9D+00
   Bfn.  Coefficient  Atom+Function         Bfn.  Coefficient  Atom+Function  
  ----- ------------  ---------------      ----- ------------  ---------------
   127      0.594957   9 C  pz              170     -0.594957  10 C  pz        
   299     -0.594957  13 C  pz              342      0.594957  14 C  pz        
   126     -0.512471   9 C  py              212      0.512471  11 C  py        
   341     -0.512471  14 C  py              384      0.512471  15 C  py        
   169     -0.487501  10 C  py              255      0.487501  12 C  py        

 Vector   51  Occ=0.000000D+00  E= 4.333418D-01  Symmetry=t2u
              MO Center= -6.6D-15, -2.9D-15,  9.0D-16, r^2= 7.9D+00
   Bfn.  Coefficient  Atom+Function         Bfn.  Coefficient  Atom+Function  
  ----- ------------  ---------------      ----- ------------  ---------------
   168      0.669201  10 C  px              211     -0.669201  11 C  px        
   297      0.669201  13 C  px              383     -0.669201  15 C  px        
   169     -0.513223  10 C  py              255      0.513223  12 C  py        
   298     -0.513223  13 C  py              427      0.513223  16 C  py        
   126      0.411566   9 C  py              212     -0.411566  11 C  py        

 Vector   52  Occ=0.000000D+00  E= 4.838273D-01  Symmetry=eu
              MO Center=  1.6D-14, -2.1D-14, -6.5D-15, r^2= 7.5D+00
   Bfn.  Coefficient  Atom+Function         Bfn.  Coefficient  Atom+Function  
  ----- ------------  ---------------      ----- ------------  ---------------
   126      2.478452   9 C  py              169     -2.478452  10 C  py        
   212      2.478452  11 C  py              255     -2.478452  12 C  py        
   298     -2.478452  13 C  py              341      2.478452  14 C  py        
   384      2.478452  15 C  py              427     -2.478452  16 C  py        
   125     -2.004227   9 C  px              168      2.004227  10 C  px        

 Vector   53  Occ=0.000000D+00  E= 4.838273D-01  Symmetry=eu
              MO Center= -2.6D-14, -5.7D-16, -4.8D-15, r^2= 7.5D+00
   Bfn.  Coefficient  Atom+Function         Bfn.  Coefficient  Atom+Function  
  ----- ------------  ---------------      ----- ------------  ---------------
   127      2.588076   9 C  pz              170      2.588076  10 C  pz        
   213     -2.588076  11 C  pz              256     -2.588076  12 C  pz        
   299      2.588076  13 C  pz              342      2.588076  14 C  pz        
   385     -2.588076  15 C  pz              428     -2.588076  16 C  pz        
   125     -1.704729   9 C  px              168      1.704729  10 C  px        

 Vector   54  Occ=0.000000D+00  E= 4.946220D-01  Symmetry=t1u
              MO Center= -3.7D-14, -1.3D-13, -1.0D-13, r^2= 6.1D+00
   Bfn.  Coefficient  Atom+Function         Bfn.  Coefficient  Atom+Function  
  ----- ------------  ---------------      ----- ------------  ---------------
   159      2.688581  10 C  s               288     -2.688581  13 C  s         
   116     -1.879510   9 C  s               331      1.879510  14 C  s         
   168      1.674991  10 C  px              297      1.674991  13 C  px        
   125      1.461688   9 C  px              340      1.461688  14 C  px        
   254      1.302930  12 C  px              426      1.302930  16 C  px        

 Vector   55  Occ=0.000000D+00  E= 4.946220D-01  Symmetry=t1u
              MO Center= -9.8D-15,  1.0D-14, -8.9D-16, r^2= 6.1D+00
   Bfn.  Coefficient  Atom+Function         Bfn.  Coefficient  Atom+Function  
  ----- ------------  ---------------      ----- ------------  ---------------
   202      3.010109  11 C  s               374     -3.010109  15 C  s         
   212     -1.586883  11 C  py              384     -1.586883  15 C  py        
   159     -1.388381  10 C  s               288      1.388381  13 C  s         
   213      1.346477  11 C  pz              385      1.346477  15 C  pz        
   211      1.289927  11 C  px              383      1.289927  15 C  px        

 Vector   56  Occ=0.000000D+00  E= 4.946220D-01  Symmetry=t1u
              MO Center= -2.6D-14, -1.9D-14, -2.4D-14, r^2= 6.1D+00
   Bfn.  Coefficient  Atom+Function         Bfn.  Coefficient  Atom+Function  
  ----- ------------  ---------------      ----- ------------  ---------------
   245     -2.525599  12 C  s               417      2.525599  16 C  s         
   116      2.398231   9 C  s               331     -2.398231  14 C  s         
   256     -1.568268  12 C  pz              428     -1.568268  16 C  pz        
   127     -1.534689   9 C  pz              342     -1.534689  14 C  pz        
   255     -1.270404  12 C  py              427     -1.270404  16 C  py        

 Vector   57  Occ=0.000000D+00  E= 5.621770D-01  Symmetry=a1g
              MO Center=  1.5D-13,  6.3D-14, -2.8D-14, r^2= 9.3D+00
   Bfn.  Coefficient  Atom+Function         Bfn.  Coefficient  Atom+Function  
  ----- ------------  ---------------      ----- ------------  ---------------
   116      1.705613   9 C  s               159      1.705613  10 C  s         
   202      1.705613  11 C  s               245      1.705613  12 C  s         
   288      1.705613  13 C  s               331      1.705613  14 C  s         
   374      1.705613  15 C  s               417      1.705613  16 C  s         
     3     -1.262650   1 H  s                17     -1.262650   2 H  s         


 center of mass
 --------------
 x =   0.00000000 y =   0.00000000 z =   0.00000000

 moments of inertia (a.u.)
 ------------------
         535.113832566209           0.000000000000           0.000000000000
           0.000000000000         535.113832566209           0.000000000000
           0.000000000000           0.000000000000         535.113832566209

  Mulliken analysis of the total density
  --------------------------------------

    Atom       Charge   Shell Charges
 -----------   ------   -------------------------------------------------------
    1 H    1     0.89   0.27  0.48  0.11  0.01  0.02  0.00
    2 H    1     0.89   0.27  0.48  0.11  0.01  0.02  0.00
    3 H    1     0.89   0.27  0.48  0.11  0.01  0.02  0.00
    4 H    1     0.89   0.27  0.48  0.11  0.01  0.02  0.00
    5 H    1     0.89   0.27  0.48  0.11  0.01  0.02  0.00
    6 H    1     0.89   0.27  0.48  0.11  0.01  0.02  0.00
    7 H    1     0.89   0.27  0.48  0.11  0.01  0.02  0.00
    8 H    1     0.89   0.27  0.48  0.11  0.01  0.02  0.00
    9 C    6     6.11   1.95  0.80  0.16  0.33 -0.00 -0.00  0.78  1.57  0.41  0.00  0.00  0.02  0.09  0.00  0.01
   10 C    6     6.11   1.95  0.80  0.16  0.33 -0.00 -0.00  0.78  1.57  0.41  0.00  0.00  0.02  0.09  0.00  0.01
   11 C    6     6.11   1.95  0.80  0.16  0.33 -0.00 -0.00  0.78  1.57  0.41  0.00  0.00  0.02  0.09  0.00  0.01
   12 C    6     6.11   1.95  0.80  0.16  0.33 -0.00 -0.00  0.78  1.57  0.41  0.00  0.00  0.02  0.09  0.00  0.01
   13 C    6     6.11   1.95  0.80  0.16  0.33 -0.00 -0.00  0.78  1.57  0.41  0.00  0.00  0.02  0.09  0.00  0.01
   14 C    6     6.11   1.95  0.80  0.16  0.33 -0.00 -0.00  0.78  1.57  0.41  0.00  0.00  0.02  0.09  0.00  0.01
   15 C    6     6.11   1.95  0.80  0.16  0.33 -0.00 -0.00  0.78  1.57  0.41  0.00  0.00  0.02  0.09  0.00  0.01
   16 C    6     6.11   1.95  0.80  0.16  0.33 -0.00 -0.00  0.78  1.57  0.41  0.00  0.00  0.02  0.09  0.00  0.01

       Multipole analysis of the density wrt the origin
       ------------------------------------------------

     L   x y z        total         open         nuclear
     -   - - -        -----         ----         -------
     0   0 0 0     -0.000000      0.000000     56.000000

     1   1 0 0     -0.000000      0.000000      0.000000
     1   0 1 0     -0.000000      0.000000      0.000000
     1   0 0 1     -0.000000      0.000000      0.000000

     2   2 0 0    -34.962336      0.000000    161.994752
     2   1 1 0     -0.000000      0.000000      0.000000
     2   1 0 1      0.000000      0.000000      0.000000
     2   0 2 0    -34.962336      0.000000    161.994752
     2   0 1 1      0.000000      0.000000      0.000000
     2   0 0 2    -34.962336      0.000000    161.994752

                   NWChem MP2 Semi-direct Energy/Gradient Module
                   ---------------------------------------------


                     cubane MP2/cc-pCVTZ geometry optimization


  Basis functions       =    456
  Molecular orbitals    =    455
  Frozen core           =      0
  Frozen virtuals       =      0
  Active alpha occupied =     28
  Active beta occupied  =     28
  Active alpha virtual  =    427
  Active beta virtual   =    427
  Use MO symmetry       = F
  Use skeleton AO sym   = T

  AO/Fock/Back tols     =   1.0D-09  1.0D-09  1.0D-09

 GA uses MA = F    GA memory limited = T

 Available: 
  local mem=  2.62D+07
 global mem=  2.50D+07
 local disk=  4.37D+10
  mp2_memr nvloc                   427
  nvloc new                   427
   1 passes of  28:        5009563                   11687200                2660220955.

 Semi-direct pass number   1 of   1  for RHF alpha+beta  at      421.6s
  vrange nnbf                 92700
Node 0 wrote   8866.6 Mb in      9.1 s     Agg I/O rate:   974.3 Mb/s
 Done moints_semi at     2570.9s
  mp2_eaf for ta                     -1
  mp2_eaf for tb                     -1
 Done maket at     2741.4s
 Done pijab at     2771.7s
 Done wijab at     2799.2s
 Done lai at     3188.6s
 Done nonsep at     3437.4s
 Done multipass loop at     3437.7s


          -------------------------------------------
          SCF energy                -307.486704180401
          Correlation energy          -1.681553198783
          Singlet pairs               -1.150097460476
          Triplet pairs               -0.531455738307
          Total MP2 energy          -309.168257379185
          -------------------------------------------



          ---------------------------------------------------
                    Spin Component Scaled (SCS) MP2
          Same spin pairs                     -0.354303825538
          Same spin scaling factor             0.333333333333
          Opposite spin pairs                 -1.327249373245
          Opposite spin scaling fact.          1.200000000000
          SCS-MP2 correlation energy          -1.710800523074
          Total SCS-MP2 energy              -309.197504703475
          ---------------------------------------------------

                                NWChem CPHF Module
                                ------------------


    scftype = RHF 
    nclosed =   28
      nopen =    0
  variables =    11956
  tolerance =   1.0D-04
  max. iter =  100

 SCF residual:    1.8739509159447980E-008

            ----- linear solve (tol: 1.0E-04 prod-acc: 2.4E-12) -----

               iter nbas    rnorm     rnorm-scal   ratio     time
               ---- ---- ----------- ----------- --------- -------
                  1    1  5.0202E-02  1.9324E-01    0.0000  5537.4
                  2    2  1.7121E-02  6.5904E-02    0.3410  5561.2
                  3    3  2.7823E-03  1.0710E-02    0.1625  5584.9
                  4    4  5.0692E-04  1.9513E-03    0.1822  5608.6
                  5    5  6.2884E-05  2.4206E-04    0.1241  5632.4
                  6    6  6.9199E-06  2.6637E-05    0.1100  5656.2

 CPHF converged to   2.7D-05 in    6 iters

                Dipole Moments (a.u.)
                --------------
         Nuclear       SCF       SCF+MP2
       ----------- ----------- -----------
 X       0.000000   -0.000000   -0.000000
 Y       0.000000   -0.000000   -0.000000
 Z       0.000000   -0.000000   -0.000000


 MP2 RHF      natural orbital occupation numbers


              1      
    1    1.9984
    2    1.9984
    3    1.9984
    4    1.9984
    5    1.9984
    6    1.9984
    7    1.9984
    8    1.9984
    9    1.9829
   10    1.9769
   11    1.9769
   12    1.9769
   13    1.9715
   14    1.9715
   15    1.9715
   16    1.9667
   17    1.9625
   18    1.9561
   19    1.9561
   20    1.9561
   21    1.9483
   22    1.9483
   23    1.9428
   24    1.9428
   25    1.9428
   26    1.9385
   27    1.9385
   28    1.9385
   29    0.0345
   30    0.0345
   31    0.0345
   32    0.0313
   33    0.0313
   34    0.0313
   35    0.0256
   36    0.0256
   37    0.0256
   38    0.0254
   39    0.0254
   40    0.0216
   41    0.0198
   42    0.0187
   43    0.0187
   44    0.0187
   45    0.0182
   46    0.0182
   47    0.0182
   48    0.0152
   49    0.0152
   50    0.0137
   51    0.0133
   52    0.0133
   53    0.0133
   54    0.0126
   55    0.0126
   56    0.0119
   57    0.0119
   58    0.0119
   59    0.0119
   60    0.0072
   61    0.0072
   62    0.0072
   63    0.0062
   64    0.0062
   65    0.0062
   66    0.0041
   67    0.0041
   68    0.0041
   69    0.0040
   70    0.0039
   71    0.0039
   72    0.0039
   73    0.0038
   74    0.0038
   75    0.0038
   76    0.0037
   77    0.0037
   78    0.0037
   79    0.0031
   80    0.0031
   81    0.0031
   82    0.0031
   83    0.0031
   84    0.0026
   85    0.0023
   86    0.0023
   87    0.0023
   88    0.0022
   89    0.0022
   90    0.0021
   91    0.0020
   92    0.0020
   93    0.0020
   94    0.0019
   95    0.0019
   96    0.0019
   97    0.0017
   98    0.0017
   99    0.0017
  100    0.0015
  101    0.0015
  102    0.0015
  103    0.0015
  104    0.0015
  105    0.0013
  106    0.0013
  107    0.0013
  108    0.0012
  109    0.0012
  110    0.0012
  111    0.0012
  112    0.0012
  113    0.0011
  114    0.0010
  115    0.0010
  116    0.0010
  117    0.0009
  118    0.0009
  119    0.0009
  120    0.0009
  121    0.0008
  122    0.0008
  123    0.0008
  124    0.0008
  125    0.0007
  126    0.0007
  127    0.0007
  128    0.0007
  129    0.0006
  130    0.0006
  131    0.0006
  132    0.0006
  133    0.0006
  134    0.0006
  135    0.0006
  136    0.0006
  137    0.0006
  138    0.0005
  139    0.0005
  140    0.0005
  141    0.0005
  142    0.0005
  143    0.0005
  144    0.0005
  145    0.0005
  146    0.0005
  147    0.0005
  148    0.0005
  149    0.0005
  150    0.0005
  151    0.0005
  152    0.0005
  153    0.0005
  154    0.0005
  155    0.0005
  156    0.0005
  157    0.0005
  158    0.0005
  159    0.0005
  160    0.0005
  161    0.0004
  162    0.0004
  163    0.0004
  164    0.0004
  165    0.0004
  166    0.0004
  167    0.0004
  168    0.0004
  169    0.0004
  170    0.0004
  171    0.0004
  172    0.0004
  173    0.0003
  174    0.0003
  175    0.0003
  176    0.0003
  177    0.0003
  178    0.0003
  179    0.0003
  180    0.0003
  181    0.0003
  182    0.0003
  183    0.0003
  184    0.0003
  185    0.0003
  186    0.0003
  187    0.0003
  188    0.0003
  189    0.0003
  190    0.0003
  191    0.0003
  192    0.0003
  193    0.0003
  194    0.0003
  195    0.0003
  196    0.0002
  197    0.0002
  198    0.0002
  199    0.0002
  200    0.0002
  201    0.0002
  202    0.0002
  203    0.0002
  204    0.0002
  205    0.0002
  206    0.0002
  207    0.0002
  208    0.0002
  209    0.0002
  210    0.0002
  211    0.0002
  212    0.0002
  213    0.0002
  214    0.0002
  215    0.0002
  216    0.0002
  217    0.0002
  218    0.0002
  219    0.0002
  220    0.0002
  221    0.0002
  222    0.0002
  223    0.0002
  224    0.0002
  225    0.0001
  226    0.0001
  227    0.0001
  228    0.0001
  229    0.0001
  230    0.0001
  231    0.0001
  232    0.0001
  233    0.0001
  234    0.0001
  235    0.0001
  236    0.0001
  237    0.0001
  238    0.0001
  239    0.0001
  240    0.0001
  241    0.0001
  242    0.0001
  243    0.0001
  244    0.0001
  245    0.0001
  246    0.0001
  247    0.0001
  248    0.0001
  249    0.0001
  250    0.0001
  251    0.0001
  252    0.0001
  253    0.0001
  254    0.0001
  255    0.0001
  256    0.0001
  257    0.0001
  258    0.0001
  259    0.0001
  260    0.0001
  261    0.0001
  262    0.0001
  263    0.0001
  264    0.0001
  265    0.0001
  266    0.0001
  267    0.0001
  268    0.0001
  269    0.0001
  270    0.0001
  271    0.0001
  272    0.0001
  273    0.0001
  274    0.0001
  275    0.0001
  276    0.0001
  277    0.0001
  278    0.0001
  279    0.0001
  280    0.0001
[...]
   53 Bend                    10    15    12                90.00000    0.00000
   54 Bend                    10    16    11                90.00000    0.00000
   55 Bend                    11    13    12                90.00000    0.00000
   56 Bend                    11    14    12                90.00000    0.00000
   57 Bend                    13     9    15                90.00000    0.00000
   58 Bend                    13     9    16                90.00000    0.00000
   59 Bend                    13    11    14                90.00000    0.00000
   60 Bend                    13    11    16                90.00000    0.00000
   61 Bend                    13    12    14                90.00000    0.00000
   62 Bend                    13    12    15                90.00000    0.00000
   63 Bend                    14    10    15                90.00000    0.00000
   64 Bend                    14    10    16                90.00000    0.00000
   65 Bend                    14    11    16                90.00000    0.00000
   66 Bend                    14    12    15                90.00000    0.00000
   67 Bend                    15     9    16                90.00000    0.00000
   68 Bend                    15    10    16                90.00000    0.00000
   69 Torsion                  1     9    13     5           0.00000    0.00000
   70 Torsion                  1     9    13    11        -135.00000    0.00000
   71 Torsion                  1     9    13    12         135.00000   -0.00000
   72 Torsion                  1     9    15     7           0.00000    0.00000
   73 Torsion                  1     9    15    10         135.00000   -0.00000
   74 Torsion                  1     9    15    12        -135.00000    0.00000
   75 Torsion                  1     9    16     8           0.00000    0.00000
   76 Torsion                  1     9    16    10        -135.00000    0.00000
   77 Torsion                  1     9    16    11         135.00000   -0.00000
   78 Torsion                  2    10    14     6           0.00000    0.00000
   79 Torsion                  2    10    14    11         135.00000   -0.00000
   80 Torsion                  2    10    14    12        -135.00000    0.00000
   81 Torsion                  2    10    15     7           0.00000    0.00000
   82 Torsion                  2    10    15     9        -135.00000    0.00000
   83 Torsion                  2    10    15    12         135.00000   -0.00000
   84 Torsion                  2    10    16     8           0.00000    0.00000
   85 Torsion                  2    10    16     9         135.00000   -0.00000
   86 Torsion                  2    10    16    11        -135.00000    0.00000
   87 Torsion                  3    11    13     5           0.00000    0.00000
   88 Torsion                  3    11    13     9         135.00000   -0.00000
   89 Torsion                  3    11    13    12        -135.00000    0.00000
   90 Torsion                  3    11    14     6           0.00000    0.00000
   91 Torsion                  3    11    14    10        -135.00000    0.00000
   92 Torsion                  3    11    14    12         135.00000   -0.00000
   93 Torsion                  3    11    16     8           0.00000    0.00000
   94 Torsion                  3    11    16     9        -135.00000    0.00000
   95 Torsion                  3    11    16    10         135.00000   -0.00000
   96 Torsion                  4    12    13     5           0.00000    0.00000
   97 Torsion                  4    12    13     9        -135.00000    0.00000
   98 Torsion                  4    12    13    11         135.00000   -0.00000
   99 Torsion                  4    12    14     6           0.00000    0.00000
  100 Torsion                  4    12    14    10         135.00000   -0.00000
  101 Torsion                  4    12    14    11        -135.00000    0.00000
  102 Torsion                  4    12    15     7           0.00000    0.00000
  103 Torsion                  4    12    15     9         135.00000   -0.00000
  104 Torsion                  4    12    15    10        -135.00000    0.00000
  105 Torsion                  5    13     9    15        -135.00000    0.00000
  106 Torsion                  5    13     9    16         135.00000   -0.00000
  107 Torsion                  5    13    11    14         135.00000   -0.00000
  108 Torsion                  5    13    11    16        -135.00000    0.00000
  109 Torsion                  5    13    12    14        -135.00000    0.00000
  110 Torsion                  5    13    12    15         135.00000   -0.00000
  111 Torsion                  6    14    10    15         135.00000   -0.00000
  112 Torsion                  6    14    10    16        -135.00000    0.00000
  113 Torsion                  6    14    11    13        -135.00000    0.00000
  114 Torsion                  6    14    11    16         135.00000   -0.00000
  115 Torsion                  6    14    12    13         135.00000   -0.00000
  116 Torsion                  6    14    12    15        -135.00000    0.00000
  117 Torsion                  7    15     9    13         135.00000   -0.00000
  118 Torsion                  7    15     9    16        -135.00000    0.00000
  119 Torsion                  7    15    10    14        -135.00000    0.00000
  120 Torsion                  7    15    10    16         135.00000   -0.00000
  121 Torsion                  7    15    12    13        -135.00000    0.00000
  122 Torsion                  7    15    12    14         135.00000   -0.00000
  123 Torsion                  8    16     9    13        -135.00000    0.00000
  124 Torsion                  8    16     9    15         135.00000   -0.00000
  125 Torsion                  8    16    10    14         135.00000   -0.00000
  126 Torsion                  8    16    10    15        -135.00000    0.00000
  127 Torsion                  8    16    11    13         135.00000   -0.00000
  128 Torsion                  8    16    11    14        -135.00000    0.00000
  129 Torsion                  9    13    11    14         -90.00000    0.00000
  130 Torsion                  9    13    11    16           0.00000    0.00000
  131 Torsion                  9    13    12    14          90.00000    0.00000
  132 Torsion                  9    13    12    15           0.00000    0.00000
  133 Torsion                  9    15    10    14          90.00000    0.00000
  134 Torsion                  9    15    10    16           0.00000    0.00000
  135 Torsion                  9    15    12    13           0.00000    0.00000
  136 Torsion                  9    15    12    14         -90.00000    0.00000
  137 Torsion                  9    16    10    14         -90.00000    0.00000
  138 Torsion                  9    16    10    15           0.00000    0.00000
  139 Torsion                  9    16    11    13           0.00000    0.00000
  140 Torsion                  9    16    11    14          90.00000    0.00000
  141 Torsion                 10    14    11    13          90.00000    0.00000
  142 Torsion                 10    14    11    16           0.00000    0.00000
  143 Torsion                 10    14    12    13         -90.00000    0.00000
  144 Torsion                 10    14    12    15           0.00000    0.00000
  145 Torsion                 10    15     9    13         -90.00000    0.00000
  146 Torsion                 10    15     9    16           0.00000    0.00000
  147 Torsion                 10    15    12    13          90.00000    0.00000
  148 Torsion                 10    15    12    14           0.00000    0.00000
  149 Torsion                 10    16     9    13          90.00000    0.00000
  150 Torsion                 10    16     9    15           0.00000    0.00000
  151 Torsion                 10    16    11    13         -90.00000    0.00000
  152 Torsion                 10    16    11    14           0.00000    0.00000
  153 Torsion                 11    13     9    15          90.00000    0.00000
  154 Torsion                 11    13     9    16           0.00000    0.00000
  155 Torsion                 11    13    12    14           0.00000    0.00000
  156 Torsion                 11    13    12    15         -90.00000    0.00000
  157 Torsion                 11    14    10    15         -90.00000    0.00000
  158 Torsion                 11    14    10    16           0.00000    0.00000
  159 Torsion                 11    14    12    13           0.00000    0.00000
  160 Torsion                 11    14    12    15          90.00000    0.00000
  161 Torsion                 11    16     9    13           0.00000    0.00000
  162 Torsion                 11    16     9    15         -90.00000    0.00000
  163 Torsion                 11    16    10    14           0.00000    0.00000
  164 Torsion                 11    16    10    15          90.00000    0.00000
  165 Torsion                 12    13     9    15           0.00000    0.00000
  166 Torsion                 12    13     9    16         -90.00000    0.00000
  167 Torsion                 12    13    11    14           0.00000    0.00000
  168 Torsion                 12    13    11    16          90.00000    0.00000
  169 Torsion                 12    14    10    15           0.00000    0.00000
  170 Torsion                 12    14    10    16          90.00000    0.00000
  171 Torsion                 12    14    11    13           0.00000    0.00000
  172 Torsion                 12    14    11    16         -90.00000    0.00000
  173 Torsion                 12    15     9    13           0.00000    0.00000
  174 Torsion                 12    15     9    16          90.00000    0.00000
  175 Torsion                 12    15    10    14           0.00000    0.00000
  176 Torsion                 12    15    10    16         -90.00000    0.00000

 ==============================================================================
                                internuclear distances
 ------------------------------------------------------------------------------
       center one      |      center two      | atomic units |  angstroms
 ------------------------------------------------------------------------------
    9 C                |   1 H                |     2.04945  |     1.08452
   10 C                |   2 H                |     2.04945  |     1.08452
   11 C                |   3 H                |     2.04945  |     1.08452
   12 C                |   4 H                |     2.04945  |     1.08452
   13 C                |   5 H                |     2.04945  |     1.08452
   13 C                |   9 C                |     2.95271  |     1.56251
   13 C                |  11 C                |     2.95271  |     1.56251
   13 C                |  12 C                |     2.95271  |     1.56251
   14 C                |   6 H                |     2.04945  |     1.08452
   14 C                |  10 C                |     2.95271  |     1.56251
   14 C                |  11 C                |     2.95271  |     1.56251
   14 C                |  12 C                |     2.95271  |     1.56251
   15 C                |   7 H                |     2.04945  |     1.08452
   15 C                |   9 C                |     2.95271  |     1.56251
   15 C                |  10 C                |     2.95271  |     1.56251
   15 C                |  12 C                |     2.95271  |     1.56251
   16 C                |   8 H                |     2.04945  |     1.08452
   16 C                |   9 C                |     2.95271  |     1.56251
   16 C                |  10 C                |     2.95271  |     1.56251
   16 C                |  11 C                |     2.95271  |     1.56251
 ------------------------------------------------------------------------------
                         number of included internuclear distances:         20
 ==============================================================================



 ==============================================================================
                                 internuclear angles
 ------------------------------------------------------------------------------
        center 1       |       center 2       |       center 3       |  degrees
 ------------------------------------------------------------------------------
    1 H                |   9 C                |  13 C                |   125.26
    1 H                |   9 C                |  15 C                |   125.26
    1 H                |   9 C                |  16 C                |   125.26
   13 C                |   9 C                |  15 C                |    90.00
   13 C                |   9 C                |  16 C                |    90.00
   15 C                |   9 C                |  16 C                |    90.00
    2 H                |  10 C                |  14 C                |   125.26
    2 H                |  10 C                |  15 C                |   125.26
    2 H                |  10 C                |  16 C                |   125.26
   14 C                |  10 C                |  15 C                |    90.00
   14 C                |  10 C                |  16 C                |    90.00
   15 C                |  10 C                |  16 C                |    90.00
    3 H                |  11 C                |  13 C                |   125.26
    3 H                |  11 C                |  14 C                |   125.26
    3 H                |  11 C                |  16 C                |   125.26
   13 C                |  11 C                |  14 C                |    90.00
   13 C                |  11 C                |  16 C                |    90.00
   14 C                |  11 C                |  16 C                |    90.00
    4 H                |  12 C                |  13 C                |   125.26
    4 H                |  12 C                |  14 C                |   125.26
    4 H                |  12 C                |  15 C                |   125.26
   13 C                |  12 C                |  14 C                |    90.00
   13 C                |  12 C                |  15 C                |    90.00
   14 C                |  12 C                |  15 C                |    90.00
    5 H                |  13 C                |   9 C                |   125.26
    5 H                |  13 C                |  11 C                |   125.26
    5 H                |  13 C                |  12 C                |   125.26
    9 C                |  13 C                |  11 C                |    90.00
    9 C                |  13 C                |  12 C                |    90.00
   11 C                |  13 C                |  12 C                |    90.00
    6 H                |  14 C                |  10 C                |   125.26
    6 H                |  14 C                |  11 C                |   125.26
    6 H                |  14 C                |  12 C                |   125.26
   10 C                |  14 C                |  11 C                |    90.00
   10 C                |  14 C                |  12 C                |    90.00
   11 C                |  14 C                |  12 C                |    90.00
    7 H                |  15 C                |   9 C                |   125.26
    7 H                |  15 C                |  10 C                |   125.26
    7 H                |  15 C                |  12 C                |   125.26
    9 C                |  15 C                |  10 C                |    90.00
    9 C                |  15 C                |  12 C                |    90.00
   10 C                |  15 C                |  12 C                |    90.00
    8 H                |  16 C                |   9 C                |   125.26
    8 H                |  16 C                |  10 C                |   125.26
    8 H                |  16 C                |  11 C                |   125.26
    9 C                |  16 C                |  10 C                |    90.00
    9 C                |  16 C                |  11 C                |    90.00
   10 C                |  16 C                |  11 C                |    90.00
 ------------------------------------------------------------------------------
                            number of included internuclear angles:         48
 ==============================================================================




 Task  times  cpu:    24791.7s     wall:    18548.6s
 Summary of allocated global arrays
-----------------------------------
  No active global arrays



                         GA Statistics for process    0
                         ------------------------------

       create   destroy   get      put      acc     scatter   gather  read&inc
calls: 2537     2537     5.42e+07 4.22e+06 2.79e+07    0        0     1.01e+05 
number of processes/call 1.00e+00 1.00e+00 1.00e+00 0.00e+00 0.00e+00
bytes total:             6.86e+10 1.02e+11 1.98e+10 0.00e+00 0.00e+00 8.05e+05
bytes remote:            0.00e+00 0.00e+00 0.00e+00 0.00e+00 0.00e+00 0.00e+00
Max memory consumed for GA by this process: 209657512 bytes
MA_summarize_allocated_blocks: starting scan ...
MA_summarize_allocated_blocks: scan completed: 0 heap blocks, 0 stack blocks
MA usage statistics:

	allocation statistics:
					      heap	     stack
					      ----	     -----
	current number of blocks	         0	         0
	maximum number of blocks	        25	        36
	current total bytes		         0	         0
	maximum total bytes		    456384	 111707320
	maximum total K-bytes		       457	    111708
	maximum total M-bytes		         1	       112


                                NWChem Input Module
                                -------------------





                                     CITATION
                                     --------
                Please cite the following reference when publishing
                           results obtained with NWChem:

                 M. Valiev, E.J. Bylaska, N. Govind, K. Kowalski,
              T.P. Straatsma, H.J.J. van Dam, D. Wang, J. Nieplocha,
                        E. Apra, T.L. Windus, W.A. de Jong
                 "NWChem: a comprehensive and scalable open-source
                  solution for large scale molecular simulations"
                      Comput. Phys. Commun. 181, 1477 (2010)
                           doi:10.1016/j.cpc.2010.04.018

                                      AUTHORS
                                      -------
          E. Apra, E. J. Bylaska, W. A. de Jong, N. Govind, K. Kowalski,
       T. P. Straatsma, M. Valiev, H. J. J. van Dam, D. Wang, T. L. Windus,
        J. Hammond, J. Autschbach, K. Bhaskaran-Nair, J. Brabec, K. Lopata,
       S. A. Fischer, S. Krishnamoorthy, W. Ma, M. Klemm, O. Villa, Y. Chen,
    V. Anisimov, F. Aquino, S. Hirata, M. T. Hackler, T. Risthaus, M. Malagoli,
       A. Marenich, A. Otero-de-la-Roza, J. Mullin, P. Nichols, R. Peverati,
     J. Pittner, Y. Zhao, P.-D. Fan, A. Fonari, M. Williamson, R. J. Harrison,
       J. R. Rehr, M. Dupuis, D. Silverstein, D. M. A. Smith, J. Nieplocha,
        V. Tipparaju, M. Krishnan, B. E. Van Kuiken, A. Vazquez-Mayagoitia,
        L. Jensen, M. Swart, Q. Wu, T. Van Voorhis, A. A. Auer, M. Nooijen,
      L. D. Crosby, E. Brown, G. Cisneros, G. I. Fann, H. Fruchtl, J. Garza,
        K. Hirao, R. A. Kendall, J. A. Nichols, K. Tsemekhman, K. Wolinski,
     J. Anchell, D. E. Bernholdt, P. Borowski, T. Clark, D. Clerc, H. Dachsel,
   M. J. O. Deegan, K. Dyall, D. Elwood, E. Glendening, M. Gutowski, A. C. Hess,
         J. Jaffe, B. G. Johnson, J. Ju, R. Kobayashi, R. Kutteh, Z. Lin,
   R. Littlefield, X. Long, B. Meng, T. Nakajima, S. Niu, L. Pollack, M. Rosing,
   K. Glaesemann, G. Sandrone, M. Stave, H. Taylor, G. Thomas, J. H. van Lenthe,
                               A. T. Wong, Z. Zhang.

 Total times  cpu:    24791.9s     wall:    18549.6s
