
                                 *****************
                                 * O   R   C   A *
                                 *****************

           --- An Ab Initio, DFT and Semiempirical electronic structure package ---

                  #######################################################
                  #                        -***-                        #
                  #          Department of theory and spectroscopy      #
                  #               Directorship: Frank Neese             #
                  #        Max Planck Institute fuer Kohlenforschung    #
                  #                Kaiser Wilhelm Platz 1               #
                  #                 D-45470 Muelheim/Ruhr               #
                  #                      Germany                        #
                  #                                                     #
                  #                  All rights reserved                #
                  #                        -***-                        #
                  #######################################################


                         Program Version 4.2.0 -  RELEASE  -


 With contributions from (in alphabetic order):
   Daniel Aravena         : Magnetic Suceptibility
   Michael Atanasov       : Ab Initio Ligand Field Theory (pilot matlab implementation)
   Alexander A. Auer      : GIAO ZORA, VPT2
   Ute Becker             : Parallelization
   Giovanni Bistoni       : ED, misc. LED, open-shell LED, HFLED
   Martin Brehm           : Molecular dynamics
   Dmytro Bykov           : SCF Hessian
   Vijay G. Chilkuri      : MRCI spin determinant printing, contributions to CSF-ICE
   Dipayan Datta          : RHF DLPNO-CCSD density
   Achintya Kumar Dutta   : EOM-CC, STEOM-CC
   Dmitry Ganyushin       : Spin-Orbit,Spin-Spin,Magnetic field MRCI
   Miquel Garcia          : C-PCM Hessian, Gaussian charge scheme
   Yang Guo               : DLPNO-NEVPT2, CIM, IAO-localization
   Andreas Hansen         : Spin unrestricted coupled pair/coupled cluster methods
   Benjamin Helmich-Paris : CASSCF linear response (MC-RPA)
   Lee Huntington         : MR-EOM, pCC
   Robert Izsak           : Overlap fitted RIJCOSX, COSX-SCS-MP3, EOM
   Christian Kollmar      : KDIIS, OOCD, Brueckner-CCSD(T), CCSD density
   Simone Kossmann        : Meta GGA functionals, TD-DFT gradient, OOMP2, MP2 Hessian
   Martin Krupicka        : AUTO-CI
   Lucas Lang             : DCDCAS
   Dagmar Lenk            : GEPOL surface, SMD
   Dimitrios Liakos       : Extrapolation schemes; Compound Job, initial MDCI parallelization
   Dimitrios Manganas     : Further ROCIS development; embedding schemes
   Dimitrios Pantazis     : SARC Basis sets
   Taras Petrenko         : DFT Hessian,TD-DFT gradient, ASA, ECA, R-Raman, ABS, FL, XAS/XES, NRVS
   Peter Pinski           : DLPNO-MP2, DLPNO-MP2 Gradient
   Christoph Reimann      : Effective Core Potentials
   Marius Retegan         : Local ZFS, SOC
   Christoph Riplinger    : Optimizer, TS searches, QM/MM, DLPNO-CCSD(T), (RO)-DLPNO pert. Triples
   Tobias Risthaus        : Range-separated hybrids, TD-DFT gradient, RPA, STAB
   Michael Roemelt        : Original ROCIS implementation
   Masaaki Saitow         : Open-shell DLPNO-CCSD energy and density
   Barbara Sandhoefer     : DKH picture change effects
   Avijit Sen             : IP-ROCIS
   Kantharuban Sivalingam : CASSCF convergence, NEVPT2, FIC-MRCI
   Bernardo de Souza      : ESD, SOC TD-DFT
   Georgi Stoychev        : AutoAux, RI-MP2 NMR
   Willem Van den Heuvel  : Paramagnetic NMR
   Boris Wezisla          : Elementary symmetry handling
   Frank Wennmohs         : Technical directorship


 We gratefully acknowledge several colleagues who have allowed us to
 interface, adapt or use parts of their codes:
   Stefan Grimme, W. Hujo, H. Kruse,             : VdW corrections, initial TS optimization,
                  C. Bannwarth                     DFT functionals, gCP, sTDA/sTD-DF
   Ed Valeev, F. Pavosevic, A. Kumar             : LibInt (2-el integral package), F12 methods
   Garnet Chan, S. Sharma, J. Yang, R. Olivares  : DMRG
   Ulf Ekstrom                                   : XCFun DFT Library
   Mihaly Kallay                                 : mrcc  (arbitrary order and MRCC methods)
   Andreas Klamt, Michael Diedenhofen            : otool_cosmo (COSMO solvation model)
   Jiri Pittner, Ondrej Demel                    : Mk-CCSD
   Frank Weinhold                                : gennbo (NPA and NBO analysis)
   Christopher J. Cramer and Donald G. Truhlar   : smd solvation model
   Lars Goerigk                                  : TD-DFT with DH, B97 family of functionals
   V. Asgeirsson, H. Jonsson                     : NEB implementation
   FAccTs GmbH                                   : IRC, NEB, NEB-TS, Multilevel, MM, QM/MM, CI optimization
   S Lehtola, MJT Oliveira, MAL Marques          : LibXC Library


 Your calculation uses the libint2 library for the computation of 2-el integrals
 For citations please refer to: http://libint.valeyev.net

 Your ORCA version has been built with support for libXC version: 4.2.3
 For citations please refer to: https://tddft.org/programs/libxc/

 This ORCA versions uses:
   CBLAS   interface :  Fast vector & matrix operations
   LAPACKE interface :  Fast linear algebra routines
   SCALAPACK package :  Parallel linear algebra routines


----- Orbital basis set information -----
Your calculation utilizes the basis: def2-SVP
   F. Weigend and R. Ahlrichs, Phys. Chem. Chem. Phys. 7, 3297 (2005).

================================================================================
                                        WARNINGS
                       Please study these warnings very carefully!
================================================================================


WARNING: Geometry optimizations can change the point-group symmetry!


WARNING: The environment variable RSH_COMMAND is not set!
  ===> : All Displacements for the Numerical Hessian calculation
         will be started on localhost

WARNING: Symmetry is not implemented for Numerical Hessian or Gradient calculations
  ===> : Turning off Symmetry

WARNING: Geometry Optimization
  ===> : Switching off AutoStart
         For restart on a previous wavefunction, please use MOREAD

INFO   : the flag for use of LIBINT has been found!

================================================================================
                                       INPUT FILE
================================================================================
NAME = cubane.inp
|  1> # ================================================================
|  2> # Orca input file for cubane B3LYP/def2-SVP geometry optimization
|  3> # ================================================================
|  4> ! DFT B3LYP def2-SVP TightSCF TightOPT UseSym
|  5> ! NumGrad
|  6> ! PAL4
|  7> 
|  8> %scf
|  9>   HFTyp ROHF
| 10> end
| 11> 
| 12> * xyz 0 3
| 13>   H       2.061000     -1.291000      0.025000
| 14>   C       1.072000     -0.813000     -0.052000
| 15>   H       2.061000      1.290000      0.025000
| 16>   C       1.072000      0.812000     -0.052000
| 17>   H       0.000000     -1.576000     -2.039000
| 18>   C       0.000000     -1.328000     -0.972000
| 19>   H       0.000000      1.576000     -2.039000
| 20>   C       0.000000      1.328000     -0.972000
| 21>   H       0.000000     -1.447000      1.963000
| 22>   C       0.000000     -0.772000      1.096000
| 23>   H       0.000000      1.447000      1.963000
| 24>   C       0.000000      0.772000      1.096000
| 25>   H      -2.061002     -1.291000      0.018000
| 26>   C      -1.072000     -0.813000     -0.053000
| 27>   H      -2.061000      1.290000      0.018000
| 28>   C      -1.072000      0.812000     -0.053000
| 29> *
| 30> 
| 31>                          ****END OF INPUT****
================================================================================

                       *****************************
                       * Geometry Optimization Run *
                       *****************************

Geometry optimization settings:
Update method            Update   .... BFGS
Choice of coordinates    CoordSys .... Z-matrix Internals
Initial Hessian          InHess   .... Almoef's Model

Convergence Tolerances:
Energy Change            TolE     ....  1.0000e-06 Eh
Max. Gradient            TolMAXG  ....  1.0000e-04 Eh/bohr
RMS Gradient             TolRMSG  ....  3.0000e-05 Eh/bohr
Max. Displacement        TolMAXD  ....  1.0000e-03 bohr
RMS Displacement         TolRMSD  ....  6.0000e-04 bohr
Strict Convergence                ....  False
------------------------------------------------------------------------------
                        ORCA OPTIMIZATION COORDINATE SETUP
------------------------------------------------------------------------------

The optimization will be done in new redundant internal coordinates
Making redundant internal coordinates   ...  (new redundants) done
Evaluating the initial hessian          ...  (Almloef) done
Evaluating the coordinates              ...  done
Calculating the B-matrix                .... done
Calculating the G-matrix                .... done
Diagonalizing the G-matrix              .... done
The first mode is                       ....  106
The number of degrees of freedom        ....   42

    -----------------------------------------------------------------
                    Redundant Internal Coordinates


    -----------------------------------------------------------------
         Definition                    Initial Value    Approx d2E/dq
    -----------------------------------------------------------------
      1. B(C   1,H   0)                  1.1012         0.345646   
      2. B(C   3,C   1)                  1.6250         0.263518   
      3. B(C   3,H   2)                  1.1012         0.345646   
      4. B(C   5,H   4)                  1.0954         0.352973   
      5. B(C   5,C   1)                  1.5036         0.411622   
      6. B(C   7,H   6)                  1.0954         0.352973   
      7. B(C   7,C   3)                  1.5039         0.411104   
      8. B(C   9,H   8)                  1.0988         0.348673   
      9. B(C   9,C   1)                  1.5712         0.321066   
     10. B(C  11,H  10)                  1.0988         0.348673   
     11. B(C  11,C   9)                  1.5440         0.354847   
     12. B(C  11,C   3)                  1.5712         0.321097   
     13. B(C  13,H  12)                  1.1007         0.346157   
     14. B(C  13,C   9)                  1.5720         0.320206   
     15. B(C  13,C   5)                  1.5030         0.412548   
     16. B(C  15,H  14)                  1.1007         0.346159   
     17. B(C  15,C  13)                  1.6250         0.263518   
     18. B(C  15,C  11)                  1.5719         0.320236   
     19. B(C  15,C   7)                  1.5033         0.412029   
     20. A(H   0,C   1,C   5)          122.3064         0.327322   
     21. A(C   5,C   1,C   9)           88.2558         0.359989   
     22. A(H   0,C   1,C   3)          115.7275         0.304439   
     23. A(H   0,C   1,C   9)          124.9608         0.314289   
     24. A(C   3,C   1,C   5)          110.0300         0.348141   
     25. A(C   3,C   1,C   9)           88.5047         0.333970   
     26. A(H   2,C   3,C  11)          124.9421         0.314294   
     27. A(C   1,C   3,C  11)           88.5412         0.333975   
     28. A(H   2,C   3,C   7)          122.2786         0.327254   
     29. A(C   1,C   3,H   2)          115.7275         0.304439   
     30. A(C   1,C   3,C   7)          110.0658         0.348067   
     31. A(C   7,C   3,C  11)           88.2446         0.359918   
     32. A(H   4,C   5,C  13)          132.3104         0.328578   
     33. A(C   1,C   5,H   4)          132.3394         0.328456   
     34. A(C   1,C   5,C  13)           90.9756         0.375811   
     35. A(H   6,C   7,C  15)          132.3102         0.328509   
     36. A(C   3,C   7,C  15)           90.9490         0.375647   
     37. A(C   3,C   7,H   6)          132.3392         0.328387   
     38. A(C  11,C   9,C  13)           91.4946         0.350878   
     39. A(H   8,C   9,C  13)          124.1060         0.314597   
     40. A(C   1,C   9,H   8)          124.0893         0.314734   
     41. A(C   1,C   9,C  13)           86.0173         0.345015   
     42. A(H   8,C   9,C  11)          127.9024         0.319904   
     43. A(C   1,C   9,C  11)           91.4953         0.351037   
     44. A(C   3,C  11,C  15)           86.0190         0.345026   
     45. A(C   9,C  11,H  10)          127.9024         0.319904   
     46. A(C   3,C  11,H  10)          124.1170         0.314739   
     47. A(C   3,C  11,C   9)           91.4588         0.351043   
     48. A(H  10,C  11,C  15)          124.1337         0.314602   
     49. A(C   9,C  11,C  15)           91.4581         0.350884   
     50. A(C   9,C  13,H  12)          125.2327         0.314228   
     51. A(C   5,C  13,H  12)          122.1056         0.327523   
     52. A(C   5,C  13,C   9)           88.2503         0.359962   
     53. A(H  12,C  13,C  15)          115.7375         0.304511   
     54. A(C   9,C  13,C  15)           88.5054         0.333821   
     55. A(C   5,C  13,C  15)          110.0385         0.348273   
     56. A(C  13,C  15,H  14)          115.7376         0.304511   
     57. A(C  11,C  15,H  14)          125.2140         0.314233   
     58. A(C   7,C  15,H  14)          122.0778         0.327455   
     59. A(C  11,C  15,C  13)           88.5419         0.333827   
     60. A(C   7,C  15,C  13)          110.0743         0.348199   
     61. A(C   7,C  15,C  11)           88.2392         0.359891   
     62. D(C   7,C   3,C   1,C   9)    -87.5972         0.006043   
     63. D(C  11,C   3,C   1,C   9)      0.0000         0.006043   
     64. D(H   2,C   3,C   1,H   0)      0.0000         0.006043   
     65. D(C  11,C   3,C   1,C   5)     87.5972         0.006043   
     66. D(H   2,C   3,C   1,C   5)   -143.8154         0.006043   
     67. D(H   2,C   3,C   1,C   9)    128.5874         0.006043   
     68. D(C   7,C   3,C   1,H   0)    143.8154         0.006043   
     69. D(C   7,C   3,C   1,C   5)      0.0000         0.006043   
     70. D(C  11,C   3,C   1,H   0)   -128.5874         0.006043   
     71. D(C  13,C   5,C   1,C   9)     19.5469         0.012545   
     72. D(C  13,C   5,C   1,C   3)    -68.2244         0.012545   
     73. D(C  13,C   5,C   1,H   0)    150.7721         0.012545   
     74. D(H   4,C   5,C   1,C   9)    177.4168         0.012545   
     75. D(H   4,C   5,C   1,C   3)     89.6455         0.012545   
     76. D(H   4,C   5,C   1,H   0)    -51.3579         0.012545   
     77. D(C  15,C   7,C   3,C  11)    -19.6138         0.012515   
     78. D(C  15,C   7,C   3,C   1)     68.1906         0.012515   
     79. D(C  15,C   7,C   3,H   2)   -150.7917         0.012515   
     80. D(H   6,C   7,C   3,C  11)   -177.4174         0.012515   
     81. D(H   6,C   7,C   3,H   2)     51.4048         0.012515   
     82. D(H   6,C   7,C   3,C   1)    -89.6129         0.012515   
     83. D(C  11,C   9,C   1,C   3)      0.0000         0.008444   
     84. D(C  13,C   9,C   1,H   0)   -147.8348         0.008444   
     85. D(C  13,C   9,C   1,C   5)    -18.7007         0.008444   
     86. D(C  13,C   9,C   1,C   3)     91.3945         0.008444   
     87. D(C  11,C   9,C   1,H   0)    120.7707         0.008444   
     88. D(H   8,C   9,C   1,C   5)    110.4668         0.008444   
     89. D(H   8,C   9,C   1,H   0)    -18.6673         0.008444   
     90. D(C  11,C   9,C   1,C   5)   -110.0953         0.008444   
     91. D(H   8,C   9,C   1,C   3)   -139.4379         0.008444   
     92. D(C   9,C  11,C   3,C   1)      0.0000         0.008445   
     93. D(C  15,C  11,C   9,C  13)     -0.0000         0.010123   
     94. D(C  15,C  11,C   9,C   1)     86.0537         0.010123   
     95. D(H  10,C  11,C   9,C  13)    136.9856         0.010123   
     96. D(H  10,C  11,C   9,H   8)      0.0000         0.010123   
     97. D(H  10,C  11,C   3,H   2)     18.6293         0.008445   
     98. D(C   3,C  11,C   9,C   1)      0.0000         0.010123   
     99. D(C  15,C  11,C   3,H   2)    147.8469         0.008445   
    100. D(C  15,C  11,C   3,C   1)    -91.3606         0.008445   
    101. D(H  10,C  11,C   3,C   7)   -110.4481         0.008445   
    102. D(C  15,C  11,C   3,C   7)     18.7694         0.008445   
    103. D(C   3,C  11,C   9,C  13)    -86.0537         0.010123   
    104. D(H  10,C  11,C   3,C   1)    139.4219         0.008445   
    105. D(H  10,C  11,C   9,C   1)   -136.9607         0.010123   
    106. D(C   9,C  11,C   3,C   7)    110.1300         0.008445   
    107. D(C  15,C  11,C   9,H   8)   -136.9856         0.010123   
    108. D(C   9,C  11,C   3,H   2)   -120.7926         0.008445   
    109. D(C   3,C  11,C   9,H   8)    136.9607         0.010123   
    110. D(C  15,C  13,C   9,H   8)    139.4511         0.008404   
    111. D(C  15,C  13,C   9,C   1)    -91.3953         0.008404   
    112. D(H  12,C  13,C   9,C  11)   -120.8899         0.008404   
    113. D(H  12,C  13,C   9,C   1)    147.7148         0.008404   
    114. D(C   5,C  13,C   9,C  11)    110.1040         0.008404   
    115. D(C   5,C  13,C   9,H   8)   -110.4450         0.008404   
    116. D(C   5,C  13,C   9,C   1)     18.7087         0.008404   
    117. D(C  15,C  13,C   5,H   4)    -89.6485         0.012600   
    118. D(C  15,C  13,C   5,C   1)     68.2322         0.012600   
    119. D(H  12,C  13,C   9,H   8)     18.5611         0.008404   
    120. D(H  12,C  13,C   5,H   4)     51.1137         0.012600   
    121. D(H  12,C  13,C   5,C   1)   -151.0056         0.012600   
    122. D(C   9,C  13,C   5,H   4)   -177.4182         0.012600   
    123. D(C  15,C  13,C   9,C  11)      0.0000         0.008404   
    124. D(C   9,C  13,C   5,C   1)    -19.5375         0.012600   
    125. D(H  14,C  15,C  13,C   9)   -128.9082         0.006043   
    126. D(H  14,C  15,C  13,C   5)    143.5005         0.006043   
    127. D(C  11,C  15,C  13,H  12)    128.9082         0.006043   
    128. D(C  11,C  15,C  13,C   9)      0.0000         0.006043   
    129. D(C  11,C  15,C  13,C   5)    -87.5913         0.006043   
    130. D(C   7,C  15,C  13,H  12)   -143.5005         0.006043   
    131. D(C   7,C  15,C  13,C   9)     87.5913         0.006043   
    132. D(H  14,C  15,C  11,H  10)    -18.5229         0.008405   
    133. D(H  14,C  15,C  11,C   9)    120.9121         0.008405   
    134. D(H  14,C  15,C  11,C   3)   -147.7267         0.008405   
    135. D(C  13,C  15,C  11,H  10)   -139.4350         0.008405   
    136. D(C  13,C  15,C  11,C   9)      0.0000         0.008405   
    137. D(C  13,C  15,C  11,C   3)     91.3613         0.008405   
    138. D(C   7,C  15,C  11,H  10)    110.4263         0.008405   
    139. D(C   7,C  15,C  13,C   5)      0.0000         0.006043   
    140. D(C   7,C  15,C  11,C   9)   -110.1387         0.008405   
    141. D(C   7,C  15,C  11,C   3)    -18.7774         0.008405   
    142. D(H  14,C  15,C   7,H   6)    -51.1605         0.012569   
    143. D(H  14,C  15,C   7,C   3)    151.0252         0.012569   
    144. D(C  13,C  15,C   7,H   6)     89.6159         0.012569   
    145. D(C  13,C  15,C   7,C   3)    -68.1984         0.012569   
    146. D(C  11,C  15,C   7,H   6)    177.4187         0.012569   
    147. D(H  14,C  15,C  13,H  12)      0.0000         0.006043   
    148. D(C  11,C  15,C   7,C   3)     19.6044         0.012569   
    -----------------------------------------------------------------

Number of atoms                         .... 16
Number of degrees of freedom            .... 148

         *************************************************************
         *                GEOMETRY OPTIMIZATION CYCLE   1            *
         *************************************************************
---------------------------------
CARTESIAN COORDINATES (ANGSTROEM)
---------------------------------
  H      2.061000   -1.291000    0.025000
  C      1.072000   -0.813000   -0.052000
  H      2.061000    1.290000    0.025000
  C      1.072000    0.812000   -0.052000
  H      0.000000   -1.576000   -2.039000
  C      0.000000   -1.328000   -0.972000
  H      0.000000    1.576000   -2.039000
  C      0.000000    1.328000   -0.972000
  H      0.000000   -1.447000    1.963000
  C      0.000000   -0.772000    1.096000
  H      0.000000    1.447000    1.963000
  C      0.000000    0.772000    1.096000
  H     -2.061002   -1.291000    0.018000
  C     -1.072000   -0.813000   -0.053000
  H     -2.061000    1.290000    0.018000
  C     -1.072000    0.812000   -0.053000

----------------------------
CARTESIAN COORDINATES (A.U.)
----------------------------
  NO LB      ZA    FRAG     MASS         X           Y           Z
   0 H     1.0000    0     1.008    3.894726   -2.439636    0.047243
   1 C     6.0000    0    12.011    2.025786   -1.536347   -0.098266
   2 H     1.0000    0     1.008    3.894726    2.437747    0.047243
   3 C     6.0000    0    12.011    2.025786    1.534458   -0.098266
   4 H     1.0000    0     1.008    0.000000   -2.978208   -3.853152
   5 C     6.0000    0    12.011    0.000000   -2.509556   -1.836814
   6 H     1.0000    0     1.008    0.000000    2.978208   -3.853152
   7 C     6.0000    0    12.011    0.000000    2.509556   -1.836814
   8 H     1.0000    0     1.008    0.000000   -2.734434    3.709532
   9 C     6.0000    0    12.011    0.000000   -1.458869    2.071140
  10 H     1.0000    0     1.008    0.000000    2.734434    3.709532
  11 C     6.0000    0    12.011    0.000000    1.458869    2.071140
  12 H     1.0000    0     1.008   -3.894729   -2.439636    0.034015
  13 C     6.0000    0    12.011   -2.025786   -1.536347   -0.100155
  14 H     1.0000    0     1.008   -3.894726    2.437747    0.034015
  15 C     6.0000    0    12.011   -2.025786    1.534458   -0.100155

--------------------------------
INTERNAL COORDINATES (ANGSTROEM)
--------------------------------
 H      0   0   0     0.000000000000     0.00000000     0.00000000
 C      1   0   0     1.101151215774     0.00000000     0.00000000
 H      2   1   0     2.325222354959    90.47404995     0.00000000
 C      3   2   1     1.101151215774    39.01909680   180.00000000
 H      2   1   3     2.383174773280   108.86440242   122.69772846
 C      5   2   1     1.095441919957    27.79812858   135.76304800
 H      4   3   2     2.383495122714   108.85074453   237.28301480
 C      7   4   3     1.095441919957    27.80106586   224.28600934
 H      2   1   3     2.368831990665   103.34355561   245.18877494
 C      9   2   1     1.098778412602    33.32013550   164.36007001
 H      4   3   2     2.369099829049   103.33122989   114.83154884
 C     11   4   3     1.098778412602    33.30293874   195.61131337
 H      6   5   2     2.286744026778   115.17297757   169.91038860
 C     13   6   5     1.100749724508    33.83105260   219.49673328
 H      8   7   4     2.286758623030   115.17907346   190.16488394
 C     15   8   7     1.100747927547    33.85124552   140.46960556

---------------------------
INTERNAL COORDINATES (A.U.)
---------------------------
 H      0   0   0     0.000000000000     0.00000000     0.00000000
 C      1   0   0     2.080874229847     0.00000000     0.00000000
 H      2   1   0     4.394033451344    90.47404995     0.00000000
 C      3   2   1     2.080874229847    39.01909680   180.00000000
 H      2   1   3     4.503547650770   108.86440242   122.69772846
 C      5   2   1     2.070085224336    27.79812858   135.76304800
 H      4   3   2     4.504153023466   108.85074453   237.28301480
 C      7   4   3     2.070085224336    27.80106586   224.28600934
 H      2   1   3     4.476443719629   103.34355561   245.18877494
 C      9   2   1     2.076390281682    33.32013550   164.36007001
 H      4   3   2     4.476949860822   103.33122989   114.83154884
 C     11   4   3     2.076390281682    33.30293874   195.61131337
 H      6   5   2     4.321319948990   115.17297757   169.91038860
 C     13   6   5     2.080115521309    33.83105260   219.49673328
 H      8   7   4     4.321347531909   115.17907346   190.16488394
 C     15   8   7     2.080112125546    33.85124552   140.46960556

---------------------
BASIS SET INFORMATION
---------------------
There are 2 groups of distinct atoms

 Group   1 Type H   : 4s1p contracted to 2s1p pattern {31/1}
 Group   2 Type C   : 7s4p1d contracted to 3s2p1d pattern {511/31/1}

Atom   0H    basis set group =>   1
Atom   1C    basis set group =>   2
Atom   2H    basis set group =>   1
Atom   3C    basis set group =>   2
Atom   4H    basis set group =>   1
Atom   5C    basis set group =>   2
Atom   6H    basis set group =>   1
Atom   7C    basis set group =>   2
Atom   8H    basis set group =>   1
Atom   9C    basis set group =>   2
Atom  10H    basis set group =>   1
Atom  11C    basis set group =>   2
Atom  12H    basis set group =>   1
Atom  13C    basis set group =>   2
Atom  14H    basis set group =>   1
Atom  15C    basis set group =>   2


           ************************************************************
           *        Program running with 4 parallel MPI-processes     *
           *              working on a common directory               *
           ************************************************************
------------------------------------------------------------------------------
                           ORCA GTO INTEGRAL CALCULATION
------------------------------------------------------------------------------

                         BASIS SET STATISTICS AND STARTUP INFO

 # of primitive gaussian shells          ...  136
 # of primitive gaussian functions       ...  248
 # of contracted shells                  ...   72
 # of contracted basis functions         ...  152
 Highest angular momentum                ...    2
 Maximum contraction depth               ...    5
 Integral package used                   ... LIBINT
 Integral threshhold            Thresh   ...  2.500e-11
 Primitive cut-off              TCut     ...  2.500e-12


------------------------------ INTEGRAL EVALUATION ----------------------------


 * One electron integrals 
 Pre-screening matrix                    ... done
 Shell pair data                         ... done (   0.001 sec)



           ************************************************************
           *        Program running with 4 parallel MPI-processes     *
           *              working on a common directory               *
           ************************************************************
-------------------------------------------------------------------------------
                                 ORCA SCF
-------------------------------------------------------------------------------

------------
SCF SETTINGS
------------
Hamiltonian:
 Density Functional     Method          .... DFT(GTOs)
 Exchange Functional    Exchange        .... B88
   X-Alpha parameter    XAlpha          ....  0.666667
   Becke's b parameter  XBeta           ....  0.004200
 Correlation Functional Correlation     .... LYP
 LDA part of GGA corr.  LDAOpt          .... VWN-5
 Gradients option       PostSCFGGA      .... off
 Hybrid DFT is turned on
   Fraction HF Exchange ScalHFX         ....  0.200000
   Scaling of DF-GGA-X  ScalDFX         ....  0.720000
   Scaling of DF-GGA-C  ScalDFC         ....  0.810000
   Scaling of DF-LDA-C  ScalLDAC        ....  1.000000
   Perturbative correction              ....  0.000000
   Density functional embedding theory  .... OFF
   NL short-range parameter             ....  4.800000


General Settings:
 Integral files         IntName         .... cubane
 Hartree-Fock type      HFTyp           .... ROHF
 Total Charge           Charge          ....    0
 Multiplicity           Mult            ....    3
 Number of Electrons    NEL             ....   56
 Basis Dimension        Dim             ....  152
 Nuclear Repulsion      ENuc            ....    357.9933525532 Eh

Convergence Acceleration:
 DIIS                   CNVDIIS         .... on
   Start iteration      DIISMaxIt       ....    12
   Startup error        DIISStart       ....  0.200000
   # of expansion vecs  DIISMaxEq       ....     5
   Bias factor          DIISBfac        ....   1.050
   Max. coefficient     DIISMaxC        ....  10.000
 Newton-Raphson         CNVNR           .... off
 SOSCF                  CNVSOSCF        .... off
 Level Shifting         CNVShift        .... on
   Level shift para.    LevelShift      ....    0.2500
   Turn off err/grad.   ShiftErr        ....    0.0010
 Zerner damping         CNVZerner       .... off
 Static damping         CNVDamp         .... on
   Fraction old density DampFac         ....    0.7000
   Max. Damping (<1)    DampMax         ....    0.9800
   Min. Damping (>=0)   DampMin         ....    0.0000
   Turn off err/grad.   DampErr         ....    0.1000
 Fernandez-Rico         CNVRico         .... off

SCF Procedure:
 Maximum # iterations   MaxIter         ....   125
 SCF integral mode      SCFMode         .... Direct
   Integral package                     .... LIBINT
 Reset frequency        DirectResetFreq ....    20
 Integral Threshold     Thresh          ....  2.500e-11 Eh
 Primitive CutOff       TCut            ....  2.500e-12 Eh

Convergence Tolerance:
 Convergence Check Mode ConvCheckMode   .... Total+1el-Energy
 Convergence forced     ConvForced      .... 0
 Energy Change          TolE            ....  1.000e-08 Eh
 1-El. energy change                    ....  1.000e-05 Eh
 DIIS Error             TolErr          ....  5.000e-07


Diagonalization of the overlap matrix:
Smallest eigenvalue                        ... 8.282e-05
Time for diagonalization                   ...    0.010 sec
Threshold for overlap eigenvalues          ... 1.000e-08
Number of eigenvalues below threshold      ... 0
Time for construction of square roots      ...    0.007 sec
Total time needed                          ...    0.017 sec

-------------------
DFT GRID GENERATION
-------------------

General Integration Accuracy     IntAcc      ...  4.340
Radial Grid Type                 RadialGrid  ... Gauss-Chebyshev
Angular Grid (max. acc.)         AngularGrid ... Lebedev-110
Angular grid pruning method      GridPruning ... 3 (G Style)
Weight generation scheme         WeightScheme... Becke
Basis function cutoff            BFCut       ...    1.0000e-11
Integration weight cutoff        WCut        ...    1.0000e-14
Grids for H and He will be reduced by one unit

# of grid points (after initial pruning)     ...  19600 (   0.0 sec)
# of grid points (after weights+screening)   ...  17866 (   0.1 sec)
nearest neighbour list constructed           ...    0.0 sec
Grid point re-assignment to atoms done       ...    0.0 sec
Grid point division into batches done        ...    0.0 sec
Reduced shell lists constructed in    0.1 sec

Total number of grid points                  ...    17866
Total number of batches                      ...      290
Average number of points per batch           ...       61
Average number of grid points per atom       ...     1117
Average number of shells per batch           ...    57.64 (80.05%)
Average number of basis functions per batch  ...   122.55 (80.63%)
Average number of large shells per batch     ...    46.97 (81.50%)
Average number of large basis fcns per batch ...    98.08 (80.03%)
Maximum spatial batch extension              ...  19.96, 16.87, 22.36 au
Average spatial batch extension              ...   0.96,  0.96,  1.01 au

Time for grid setup =    0.127 sec

------------------------------
INITIAL GUESS: MODEL POTENTIAL
------------------------------
Loading Hartree-Fock densities                     ... done
Calculating cut-offs                               ... done
Setting up the integral package                    ... done
Initializing the effective Hamiltonian             ... done
Starting the Coulomb interaction                   ... done (   0.0 sec)
Reading the grid                                   ... done
Mapping shells                                     ... done
Starting the XC term evaluation                    ... done (   0.0 sec)
  promolecular density results
     # of electrons  =     56.007027507
     EX              =    -43.465157861
     EC              =     -1.856175179
     EX+EC           =    -45.321333040
Transforming the Hamiltonian                       ... done (   0.0 sec)
Diagonalizing the Hamiltonian                      ... done (   0.0 sec)
Back transforming the eigenvectors                 ... done (   0.0 sec)
Now organizing SCF variables                       ... 
-----------------------------
DETECTED OPEN SHELL STRUCTURE
-----------------------------
  There are 2 open shells
  (1) From orb= 27 to orb= 27 deg= 1 Alpha=1 Beta=0 en= -0.2477
  (2) From orb= 28 to orb= 28 deg= 1 Alpha=1 Beta=0 en= -0.2135
  HIGHSPIN case with 2 electrons in 2 orbitals found and Mult=3

-------------------
FINAL ROHF SETTINGS
-------------------
Number of operators             ... 2
  operator   0:  27 orbitals  54 electrons n(mue)= 2.000
  operator   1:   2 orbitals   2 electrons n(mue)= 1.000
Vector coupling coefficients a and b (Zerner convention):
   1.000    1.000           1.000    1.000 
   1.000    1.000           1.000    2.000 

done
                      ------------------
                      INITIAL GUESS DONE (   0.3 sec)
                      ------------------
--------------
SCF ITERATIONS
--------------
ITER       Energy         Delta-E        Max-DP      RMS-DP      [F,P]     Damp
               ***  Starting incremental Fock matrix formation  ***
                            ****Activating DIIS****
  0   -308.8277796125   0.000000000000 0.08039173  0.00307070  0.0689453 0.0000
  1   -308.9477458234  -0.119966210858 0.03186735  0.00106213  0.0273321 0.0000
  2   -308.9664609282  -0.018715104802 0.00996993  0.00036412  0.0051689 0.0000
  3   -308.9675839194  -0.001122991263 0.00808503  0.00025295  0.0034838 0.0000
  4   -308.9680307002  -0.000446780746 0.00759783  0.00021959  0.0023549 0.0000
  5   -308.9682632810  -0.000232580781 0.00498171  0.00013189  0.0013516 0.0000
  6   -308.9683362799  -0.000072998962 0.00178238  0.00005060  0.0004662 0.0000
  7   -308.9683464842  -0.000010204293 0.00122505  0.00003032  0.0001611 0.0000
  8   -308.9683480661  -0.000001581870 0.00072183  0.00001884  0.0000889 0.0000
  9   -308.9683484676  -0.000000401533 0.00030497  0.00000841  0.0000504 0.0000
 10   -308.9683485747  -0.000000107047 0.00010872  0.00000338  0.0000295 0.0000
 11   -308.9683486069  -0.000000032215 0.00003213  0.00000118  0.0000151 0.0000
 12   -308.9683486158  -0.000000008889 0.00003492  0.00000095  0.0000082 0.0000
 13   -308.9683486173  -0.000000001555 0.00002596  0.00000072  0.0000064 0.0000
                 **** Energy Check signals convergence ****

               *****************************************************
               *                     SUCCESS                       *
               *           SCF CONVERGED AFTER  14 CYCLES          *
               *****************************************************

Setting up the final grid:

General Integration Accuracy     IntAcc      ...  4.670
Radial Grid Type                 RadialGrid  ... Gauss-Chebyshev
Angular Grid (max. acc.)         AngularGrid ... Lebedev-302
Angular grid pruning method      GridPruning ... 3 (G Style)
Weight generation scheme         WeightScheme... Becke
Basis function cutoff            BFCut       ...    1.0000e-11
Integration weight cutoff        WCut        ...    1.0000e-14
Grids for H and He will be reduced by one unit

# of grid points (after initial pruning)     ...  76848 (   0.0 sec)
# of grid points (after weights+screening)   ...  68964 (   0.0 sec)
nearest neighbour list constructed           ...    0.0 sec
Grid point re-assignment to atoms done       ...    0.0 sec
Grid point division into batches done        ...    0.2 sec
Reduced shell lists constructed in    0.3 sec

Total number of grid points                  ...    68964
Total number of batches                      ...     1088
Average number of points per batch           ...       63
Average number of grid points per atom       ...     4310
Average number of shells per batch           ...    53.27 (73.98%)
Average number of basis functions per batch  ...   113.00 (74.34%)
Average number of large shells per batch     ...    42.73 (80.21%)
Average number of large basis fcns per batch ...    88.47 (78.29%)
Maximum spatial batch extension              ...  20.72, 22.20, 20.64 au
Average spatial batch extension              ...   0.64,  0.63,  0.65 au

Final grid set up in    0.3 sec
Final integration                            ... done (   0.3 sec)
Change in XC energy                          ...    -0.000212714
Integrated number of electrons               ...    55.999958944
Previous integrated no of electrons          ...    56.001050261

----------------
TOTAL SCF ENERGY
----------------

Total Energy       :         -308.96856133 Eh           -8407.46198 eV

Components:
Nuclear Repulsion  :          357.99335255 Eh            9741.49437 eV
Electronic Energy  :         -666.96191389 Eh          -18148.95635 eV
One Electron Energy:         -577.51341346 Eh          -15714.93891 eV
Two Electron Energy:          -89.44850042 Eh           -2434.01744 eV

Virial components:
Potential Energy   :         -463.10541776 Eh          -12601.73908 eV
Kinetic Energy     :          154.13685643 Eh            4194.27710 eV
Virial Ratio       :            3.00450800


DFT components:
N(Alpha)           :       28.999985831926 electrons
N(Beta)            :       26.999973111805 electrons
N(Total)           :       55.999958943731 electrons
E(X)               :      -35.061273353865 Eh       
E(C)               :       -2.180739233682 Eh       
E(XC)              :      -37.242012587547 Eh       
DFET-embed. en.    :        0.000000000000 Eh       

---------------
SCF CONVERGENCE
---------------

  Last Energy change         ...   -7.5289e-10  Tolerance :   1.0000e-08
  Last MAX-Density change    ...    1.9651e-05  Tolerance :   1.0000e-07
  Last RMS-Density change    ...    5.0606e-07  Tolerance :   5.0000e-09
  Last DIIS Error            ...    6.4047e-06  Tolerance :   5.0000e-07

             **** THE GBW FILE WAS UPDATED (cubane.gbw) ****
             **** DENSITY FILE WAS UPDATED (cubane.scfp) ****
             **** ENERGY FILE WAS UPDATED (cubane.en.tmp) ****
             **** THE GBW FILE WAS UPDATED (cubane.gbw) ****
             **** DENSITY FILE WAS UPDATED (cubane.scfp) ****
----------------
ORBITAL ENERGIES
----------------

  NO   OCC          E(Eh)            E(eV) 
   0   2.0000     -10.191221      -277.3172 
   1   2.0000     -10.191150      -277.3153 
   2   2.0000     -10.191146      -277.3152 
   3   2.0000     -10.191067      -277.3130 
   4   2.0000     -10.185935      -277.1734 
   5   2.0000     -10.185888      -277.1721 
   6   2.0000     -10.182364      -277.0762 
   7   2.0000     -10.182191      -277.0715 
   8   2.0000      -0.918658       -24.9980 
   9   2.0000      -0.767746       -20.8914 
  10   2.0000      -0.701348       -19.0846 
  11   2.0000      -0.679125       -18.4799 
  12   2.0000      -0.566618       -15.4184 
  13   2.0000      -0.566082       -15.4039 
  14   2.0000      -0.541864       -14.7449 
  15   2.0000      -0.520354       -14.1596 
  16   2.0000      -0.464573       -12.6417 
  17   2.0000      -0.458177       -12.4676 
  18   2.0000      -0.445907       -12.1337 
  19   2.0000      -0.425467       -11.5775 
  20   2.0000      -0.377468       -10.2714 
  21   2.0000      -0.376441       -10.2435 
  22   2.0000      -0.315717        -8.5911 
  23   2.0000      -0.309906        -8.4330 
  24   2.0000      -0.284381        -7.7384 
  25   2.0000      -0.284223        -7.7341 
  26   2.0000      -0.265795        -7.2326 
  27   1.0000      -0.213215        -5.8019 
  28   1.0000      -0.177152        -4.8205 
  29   0.0000       0.065078         1.7708 
  30   0.0000       0.076827         2.0906 
  31   0.0000       0.082256         2.2383 
  32   0.0000       0.110743         3.0135 
  33   0.0000       0.117599         3.2000 
  34   0.0000       0.129660         3.5282 
  35   0.0000       0.133478         3.6321 
  36   0.0000       0.134906         3.6710 
  37   0.0000       0.135675         3.6919 
  38   0.0000       0.152813         4.1582 
  39   0.0000       0.160027         4.3545 
  40   0.0000       0.183893         5.0040 
  41   0.0000       0.202200         5.5021 
  42   0.0000       0.229366         6.2414 
  43   0.0000       0.258411         7.0317 
  44   0.0000       0.260384         7.0854 
  45   0.0000       0.320853         8.7309 
  46   0.0000       0.329719         8.9721 
  47   0.0000       0.374821        10.1994 
  48   0.0000       0.432815        11.7775 
  49   0.0000       0.433075        11.7846 
  50   0.0000       0.427917        11.6442 
  51   0.0000       0.475672        12.9437 
  52   0.0000       0.479249        13.0410 
  53   0.0000       0.493402        13.4262 
  54   0.0000       0.489266        13.3136 
  55   0.0000       0.525635        14.3033 
  56   0.0000       0.524347        14.2682 
  57   0.0000       0.544002        14.8030 
  58   0.0000       0.557421        15.1682 
  59   0.0000       0.541700        14.7404 
  60   0.0000       0.591906        16.1066 
  61   0.0000       0.614314        16.7163 
  62   0.0000       0.623483        16.9658 
  63   0.0000       0.620526        16.8854 
  64   0.0000       0.637525        17.3479 
  65   0.0000       0.642435        17.4815 
  66   0.0000       0.653576        17.7847 
  67   0.0000       0.671415        18.2701 
  68   0.0000       0.677202        18.4276 
  69   0.0000       0.683910        18.6101 
  70   0.0000       0.686672        18.6853 
  71   0.0000       0.700972        19.0744 
  72   0.0000       0.712318        19.3832 
  73   0.0000       0.726082        19.7577 
  74   0.0000       0.732124        19.9221 
  75   0.0000       0.743967        20.2444 
  76   0.0000       0.746484        20.3129 
  77   0.0000       0.774628        21.0787 
  78   0.0000       0.827239        22.5103 
  79   0.0000       0.907523        24.6950 
  80   0.0000       0.925801        25.1923 
  81   0.0000       0.923251        25.1229 
  82   0.0000       0.934272        25.4228 
  83   0.0000       1.081921        29.4406 
  84   0.0000       1.135071        30.8869 
  85   0.0000       1.160889        31.5894 
  86   0.0000       1.294000        35.2115 
  87   0.0000       1.309231        35.6260 
  88   0.0000       1.367845        37.2210 
  89   0.0000       1.484782        40.4030 
  90   0.0000       1.493301        40.6348 
  91   0.0000       1.540759        41.9262 
  92   0.0000       1.554333        42.2956 
  93   0.0000       1.561869        42.5006 
  94   0.0000       1.572502        42.7899 
  95   0.0000       1.571133        42.7527 
  96   0.0000       1.595953        43.4281 
  97   0.0000       1.614983        43.9459 
  98   0.0000       1.662483        45.2385 
  99   0.0000       1.666341        45.3434 
 100   0.0000       1.701934        46.3120 
 101   0.0000       1.729698        47.0675 
 102   0.0000       1.748351        47.5750 
 103   0.0000       1.767993        48.1095 
 104   0.0000       1.775383        48.3106 
 105   0.0000       1.775162        48.3046 
 106   0.0000       1.852365        50.4054 
 107   0.0000       1.862404        50.6786 
 108   0.0000       1.868752        50.8513 
 109   0.0000       1.890821        51.4519 
 110   0.0000       1.892951        51.5098 
 111   0.0000       1.914404        52.0936 
 112   0.0000       1.949044        53.0362 
 113   0.0000       1.967386        53.5353 
 114   0.0000       1.977741        53.8171 
 115   0.0000       1.991348        54.1873 
 116   0.0000       2.028016        55.1851 
 117   0.0000       2.038640        55.4742 
 118   0.0000       2.066124        56.2221 
 119   0.0000       2.067831        56.2685 
 120   0.0000       2.063124        56.1404 
 121   0.0000       2.112614        57.4872 
 122   0.0000       2.115771        57.5730 
 123   0.0000       2.131243        57.9941 
 124   0.0000       2.165468        58.9254 
 125   0.0000       2.212973        60.2181 
 126   0.0000       2.210890        60.1614 
 127   0.0000       2.234555        60.8053 
 128   0.0000       2.259180        61.4754 
 129   0.0000       2.295615        62.4669 
 130   0.0000       2.306296        62.7575 
 131   0.0000       2.385609        64.9157 
 132   0.0000       2.389851        65.0312 
 133   0.0000       2.431256        66.1578 
 134   0.0000       2.477236        67.4090 
 135   0.0000       2.524525        68.6958 
 136   0.0000       2.529134        68.8212 
 137   0.0000       2.591539        70.5194 
 138   0.0000       2.627363        71.4942 
 139   0.0000       2.641819        71.8876 
 140   0.0000       2.761462        75.1432 
 141   0.0000       2.779401        75.6313 
 142   0.0000       2.779322        75.6292 
 143   0.0000       2.799078        76.1668 
 144   0.0000       2.859292        77.8053 
 145   0.0000       2.919090        79.4325 
 146   0.0000       2.951201        80.3063 
 147   0.0000       2.952121        80.3313 
 148   0.0000       3.036043        82.6149 
 149   0.0000       3.092525        84.1519 
 150   0.0000       3.145838        85.6026 
 151   0.0000       3.369255        91.6821 

                    ********************************
                    * MULLIKEN POPULATION ANALYSIS *
                    ********************************

--------------------------------------------
MULLIKEN ATOMIC CHARGES AND SPIN POPULATIONS
--------------------------------------------
   0 H :   -0.005517    0.012897
   1 C :    0.044654    0.044056
   2 H :   -0.005515    0.012885
   3 C :    0.043791    0.044137
   4 H :    0.002699    0.010488
   5 C :   -0.003927    0.851892
   6 H :    0.002715    0.010516
   7 C :   -0.003170    0.852071
   8 H :   -0.016824    0.003382
   9 C :   -0.059296    0.020022
  10 H :   -0.016895    0.003383
  11 C :   -0.059351    0.019995
  12 H :   -0.005663    0.012913
  13 C :    0.044409    0.044191
  14 H :   -0.005660    0.012901
  15 C :    0.043549    0.044272
Sum of atomic charges         :   -0.0000000
Sum of atomic spin populations:    2.0000000

-----------------------------------------------------
MULLIKEN REDUCED ORBITAL CHARGES AND SPIN POPULATIONS
-----------------------------------------------------
CHARGE
  0 H s       :     0.984047  s :     0.984047
      pz      :     0.003603  p :     0.021469
      px      :     0.012112
      py      :     0.005753
  1 C s       :     3.170601  s :     3.170601
      pz      :     0.940340  p :     2.740447
      px      :     0.876169
      py      :     0.923938
      dz2     :     0.007992  d :     0.044297
      dxz     :     0.010413
      dyz     :     0.006139
      dx2y2   :     0.011694
      dxy     :     0.008060
  2 H s       :     0.984046  s :     0.984046
      pz      :     0.003604  p :     0.021468
      px      :     0.012111
      py      :     0.005753
  3 C s       :     3.170489  s :     3.170489
      pz      :     0.940212  p :     2.741420
      px      :     0.876983
      py      :     0.924224
      dz2     :     0.007989  d :     0.044300
      dxz     :     0.010410
      dyz     :     0.006147
      dx2y2   :     0.011692
      dxy     :     0.008062
  4 H s       :     0.973713  s :     0.973713
      pz      :     0.014265  p :     0.023588
      px      :     0.003175
      py      :     0.006148
  5 C s       :     3.255685  s :     3.255685
      pz      :     0.860993  p :     2.714281
      px      :     0.928259
      py      :     0.925029
      dz2     :     0.012099  d :     0.033962
      dxz     :     0.009126
      dyz     :     0.003424
      dx2y2   :     0.003981
      dxy     :     0.005332
  6 H s       :     0.973695  s :     0.973695
      pz      :     0.014266  p :     0.023590
      px      :     0.003177
      py      :     0.006147
  7 C s       :     3.255302  s :     3.255302
      pz      :     0.861179  p :     2.713925
      px      :     0.928251
      py      :     0.924495
      dz2     :     0.012098  d :     0.033943
      dxz     :     0.009113
      dyz     :     0.003422
      dx2y2   :     0.003977
      dxy     :     0.005333
  8 H s       :     0.995292  s :     0.995292
      pz      :     0.010029  p :     0.021532
      px      :     0.003869
      py      :     0.007635
  9 C s       :     3.414354  s :     3.414354
      pz      :     0.838992  p :     2.599464
      px      :     0.928368
      py      :     0.832104
      dz2     :     0.007592  d :     0.045477
      dxz     :     0.011080
      dyz     :     0.010186
      dx2y2   :     0.009964
      dxy     :     0.006655
 10 H s       :     0.995363  s :     0.995363
      pz      :     0.010030  p :     0.021532
      px      :     0.003868
      py      :     0.007634
 11 C s       :     3.416004  s :     3.416004
      pz      :     0.838094  p :     2.597894
      px      :     0.928413
      py      :     0.831387
      dz2     :     0.007593  d :     0.045453
      dxz     :     0.011078
      dyz     :     0.010174
      dx2y2   :     0.009965
      dxy     :     0.006642
 12 H s       :     0.984173  s :     0.984173
      pz      :     0.003599  p :     0.021489
      px      :     0.012126
      py      :     0.005764
 13 C s       :     3.171786  s :     3.171786
      pz      :     0.940464  p :     2.739506
      px      :     0.875526
      py      :     0.923516
      dz2     :     0.007998  d :     0.044298
      dxz     :     0.010398
      dyz     :     0.006136
      dx2y2   :     0.011697
      dxy     :     0.008069
 14 H s       :     0.984172  s :     0.984172
      pz      :     0.003600  p :     0.021489
      px      :     0.012125
      py      :     0.005764
 15 C s       :     3.171667  s :     3.171667
      pz      :     0.940336  p :     2.740484
      px      :     0.876345
      py      :     0.923803
      dz2     :     0.007994  d :     0.044301
      dxz     :     0.010395
      dyz     :     0.006145
      dx2y2   :     0.011695
      dxy     :     0.008072

SPIN
  0 H s       :     0.012644  s :     0.012644
      pz      :     0.000036  p :     0.000253
      px      :     0.000020
      py      :     0.000196
  1 C s       :    -0.002126  s :    -0.002126
      pz      :     0.001741  p :     0.040188
      px      :    -0.003355
      py      :     0.041801
      dz2     :     0.000856  d :     0.005995
      dxz     :     0.000059
      dyz     :     0.000489
      dx2y2   :     0.002764
      dxy     :     0.001827
  2 H s       :     0.012633  s :     0.012633
      pz      :     0.000036  p :     0.000253
      px      :     0.000020
      py      :     0.000196
  3 C s       :    -0.002097  s :    -0.002097
      pz      :     0.001740  p :     0.040246
      px      :    -0.003345
      py      :     0.041851
      dz2     :     0.000856  d :     0.005987
      dxz     :     0.000059
      dyz     :     0.000488
      dx2y2   :     0.002762
      dxy     :     0.001823
  4 H s       :     0.005158  s :     0.005158
      pz      :     0.000447  p :     0.005330
      px      :     0.000000
      py      :     0.004882
  5 C s       :     0.043554  s :     0.043554
      pz      :     0.115400  p :     0.807613
      px      :     0.000000
      py      :     0.692214
      dz2     :     0.000200  d :     0.000725
      dxz     :     0.000000
      dyz     :     0.000479
      dx2y2   :     0.000046
      dxy     :     0.000000
  6 H s       :     0.005189  s :     0.005189
      pz      :     0.000448  p :     0.005328
      px      :     0.000000
      py      :     0.004880
  7 C s       :     0.043730  s :     0.043730
      pz      :     0.115705  p :     0.807615
      px      :     0.000000
      py      :     0.691909
      dz2     :     0.000201  d :     0.000726
      dxz     :     0.000000
      dyz     :     0.000480
      dx2y2   :     0.000045
      dxy     :     0.000000
  8 H s       :     0.003333  s :     0.003333
      pz      :     0.000030  p :     0.000049
      px      :     0.000000
      py      :     0.000019
  9 C s       :     0.006577  s :     0.006577
      pz      :     0.009077  p :     0.012881
      px      :     0.000000
      py      :     0.003804
      dz2     :     0.000133  d :     0.000564
      dxz     :     0.000000
      dyz     :     0.000202
      dx2y2   :     0.000229
      dxy     :     0.000000
 10 H s       :     0.003334  s :     0.003334
      pz      :     0.000030  p :     0.000049
      px      :     0.000000
      py      :     0.000019
 11 C s       :     0.006576  s :     0.006576
      pz      :     0.009073  p :     0.012852
      px      :     0.000000
      py      :     0.003779
      dz2     :     0.000134  d :     0.000566
      dxz     :     0.000000
      dyz     :     0.000203
      dx2y2   :     0.000230
      dxy     :     0.000000
 12 H s       :     0.012659  s :     0.012659
      pz      :     0.000037  p :     0.000253
      px      :     0.000020
      py      :     0.000197
 13 C s       :    -0.002125  s :    -0.002125
      pz      :     0.001728  p :     0.040309
      px      :    -0.003369
      py      :     0.041950
      dz2     :     0.000859  d :     0.006007
      dxz     :     0.000057
      dyz     :     0.000487
      dx2y2   :     0.002772
      dxy     :     0.001832
 14 H s       :     0.012648  s :     0.012648
      pz      :     0.000037  p :     0.000254
      px      :     0.000020
      py      :     0.000197
 15 C s       :    -0.002096  s :    -0.002096
      pz      :     0.001727  p :     0.040368
      px      :    -0.003359
      py      :     0.042000
      dz2     :     0.000859  d :     0.005999
      dxz     :     0.000057
      dyz     :     0.000486
      dx2y2   :     0.002770
      dxy     :     0.001827


                     *******************************
                     * LOEWDIN POPULATION ANALYSIS *
                     *******************************

-------------------------------------------
LOEWDIN ATOMIC CHARGES AND SPIN POPULATIONS
-------------------------------------------
   0 H :    0.011158    0.013120
   1 C :   -0.014596    0.070061
   2 H :    0.011124    0.013108
   3 C :   -0.014538    0.070128
   4 H :    0.001663    0.022984
   5 C :   -0.000374    0.786822
   6 H :    0.001654    0.023000
   7 C :   -0.000295    0.787070
   8 H :    0.008078    0.002581
   9 C :   -0.002461    0.020859
  10 H :    0.008127    0.002583
  11 C :   -0.002606    0.020849
  12 H :    0.011091    0.013127
  13 C :   -0.014571    0.070262
  14 H :    0.011056    0.013115
  15 C :   -0.014512    0.070330

----------------------------------------------------
LOEWDIN REDUCED ORBITAL CHARGES AND SPIN POPULATIONS
----------------------------------------------------
CHARGE
  0 H s       :     0.920299  s :     0.920299
      pz      :     0.013079  p :     0.068543
      px      :     0.036391
      py      :     0.019073
  1 C s       :     2.874827  s :     2.874827
      pz      :     1.021385  p :     3.035291
      px      :     1.022668
      py      :     0.991239
      dz2     :     0.018149  d :     0.104477
      dxz     :     0.026997
      dyz     :     0.011748
      dx2y2   :     0.028677
      dxy     :     0.018906
  2 H s       :     0.920331  s :     0.920331
      pz      :     0.013082  p :     0.068545
      px      :     0.036388
      py      :     0.019075
  3 C s       :     2.874902  s :     2.874902
      pz      :     1.021301  p :     3.035165
      px      :     1.022657
      py      :     0.991207
      dz2     :     0.018141  d :     0.104470
      dxz     :     0.026984
      dyz     :     0.011764
      dx2y2   :     0.028670
      dxy     :     0.018911
  4 H s       :     0.922818  s :     0.922818
      pz      :     0.044378  p :     0.075519
      px      :     0.011466
      py      :     0.019676
  5 C s       :     2.931854  s :     2.931854
      pz      :     0.997983  p :     2.987094
      px      :     1.027616
      py      :     0.961495
      dz2     :     0.026874  d :     0.081425
      dxz     :     0.026134
      dyz     :     0.007948
      dx2y2   :     0.008141
      dxy     :     0.012328
  6 H s       :     0.922826  s :     0.922826
      pz      :     0.044389  p :     0.075519
      px      :     0.011469
      py      :     0.019662
  7 C s       :     2.932076  s :     2.932076
      pz      :     0.997864  p :     2.986849
      px      :     1.027574
      py      :     0.961412
      dz2     :     0.026865  d :     0.081370
      dxz     :     0.026094
      dyz     :     0.007949
      dx2y2   :     0.008128
      dxy     :     0.012334
  8 H s       :     0.921059  s :     0.921059
      pz      :     0.032084  p :     0.070862
      px      :     0.013959
      py      :     0.024819
  9 C s       :     2.880023  s :     2.880023
      pz      :     1.005457  p :     3.018353
      px      :     1.000043
      py      :     1.012853
      dz2     :     0.016138  d :     0.104085
      dxz     :     0.028196
      dyz     :     0.022634
      dx2y2   :     0.025963
      dxy     :     0.011155
 10 H s       :     0.921010  s :     0.921010
      pz      :     0.032088  p :     0.070863
      px      :     0.013955
      py      :     0.024820
 11 C s       :     2.880014  s :     2.880014
      pz      :     1.005471  p :     3.018551
      px      :     1.000153
      py      :     1.012928
      dz2     :     0.016140  d :     0.104041
      dxz     :     0.028198
      dyz     :     0.022606
      dx2y2   :     0.025967
      dxy     :     0.011129
 12 H s       :     0.920299  s :     0.920299
      pz      :     0.013075  p :     0.068610
      px      :     0.036430
      py      :     0.019105
 13 C s       :     2.874737  s :     2.874737
      pz      :     1.021327  p :     3.035331
      px      :     1.022782
      py      :     0.991222
      dz2     :     0.018170  d :     0.104502
      dxz     :     0.026964
      dyz     :     0.011736
      dx2y2   :     0.028696
      dxy     :     0.018937
 14 H s       :     0.920332  s :     0.920332
      pz      :     0.013077  p :     0.068612
      px      :     0.036427
      py      :     0.019108
 15 C s       :     2.874811  s :     2.874811
      pz      :     1.021243  p :     3.035205
      px      :     1.022770
      py      :     0.991191
      dz2     :     0.018162  d :     0.104495
      dxz     :     0.026950
      dyz     :     0.011753
      dx2y2   :     0.028689
      dxy     :     0.018942

SPIN
  0 H s       :     0.011484  s :     0.011484
      pz      :     0.000142  p :     0.001636
      px      :     0.000030
      py      :     0.001464
  1 C s       :     0.010586  s :     0.010586
      pz      :     0.002801  p :     0.044705
      px      :     0.001509
      py      :     0.040395
      dz2     :     0.002370  d :     0.014770
      dxz     :     0.000067
      dyz     :     0.001101
      dx2y2   :     0.006837
      dxy     :     0.004395
  2 H s       :     0.011471  s :     0.011471
      pz      :     0.000142  p :     0.001638
      px      :     0.000029
      py      :     0.001466
  3 C s       :     0.010620  s :     0.010620
      pz      :     0.002803  p :     0.044759
      px      :     0.001508
      py      :     0.040448
      dz2     :     0.002370  d :     0.014750
      dxz     :     0.000067
      dyz     :     0.001098
      dx2y2   :     0.006830
      dxy     :     0.004385
  4 H s       :     0.004705  s :     0.004705
      pz      :     0.002209  p :     0.018279
      px      :     0.000000
      py      :     0.016070
  5 C s       :     0.016447  s :     0.016447
      pz      :     0.095919  p :     0.767796
      px      :     0.000000
      py      :     0.671877
      dz2     :     0.001002  d :     0.002580
      dxz     :     0.000000
      dyz     :     0.001291
      dx2y2   :     0.000287
      dxy     :     0.000000
  6 H s       :     0.004731  s :     0.004731
      pz      :     0.002213  p :     0.018269
      px      :     0.000000
      py      :     0.016056
  7 C s       :     0.016562  s :     0.016562
      pz      :     0.096203  p :     0.767924
      px      :     0.000000
      py      :     0.671721
      dz2     :     0.001004  d :     0.002584
      dxz     :     0.000000
      dyz     :     0.001294
      dx2y2   :     0.000286
      dxy     :     0.000000
  8 H s       :     0.002018  s :     0.002018
      pz      :     0.000448  p :     0.000563
      px      :     0.000000
      py      :     0.000115
  9 C s       :     0.009189  s :     0.009189
      pz      :     0.007076  p :     0.009804
      px      :     0.000000
      py      :     0.002728
      dz2     :     0.000514  d :     0.001866
      dxz     :     0.000000
      dyz     :     0.000447
      dx2y2   :     0.000904
      dxy     :     0.000000
 10 H s       :     0.002021  s :     0.002021
      pz      :     0.000448  p :     0.000562
      px      :     0.000000
      py      :     0.000114
 11 C s       :     0.009184  s :     0.009184
      pz      :     0.007077  p :     0.009794
      px      :     0.000000
      py      :     0.002716
      dz2     :     0.000515  d :     0.001871
      dxz     :     0.000000
      dyz     :     0.000450
      dx2y2   :     0.000906
      dxy     :     0.000000
 12 H s       :     0.011485  s :     0.011485
      pz      :     0.000142  p :     0.001642
      px      :     0.000031
      py      :     0.001469
 13 C s       :     0.010620  s :     0.010620
      pz      :     0.002794  p :     0.044834
      px      :     0.001500
      py      :     0.040540
      dz2     :     0.002380  d :     0.014808
      dxz     :     0.000066
      dyz     :     0.001096
      dx2y2   :     0.006859
      dxy     :     0.004407
 14 H s       :     0.011471  s :     0.011471
      pz      :     0.000142  p :     0.001644
      px      :     0.000030
      py      :     0.001471
 15 C s       :     0.010654  s :     0.010654
      pz      :     0.002796  p :     0.044889
      px      :     0.001499
      py      :     0.040594
      dz2     :     0.002380  d :     0.014788
      dxz     :     0.000066
      dyz     :     0.001094
      dx2y2   :     0.006852
      dxy     :     0.004397


                      *****************************
                      * MAYER POPULATION ANALYSIS *
                      *****************************

  NA   - Mulliken gross atomic population
  ZA   - Total nuclear charge
  QA   - Mulliken gross atomic charge
  VA   - Mayer's total valence
  BVA  - Mayer's bonded valence
  FA   - Mayer's free valence

  ATOM       NA         ZA         QA         VA         BVA        FA
  0 H      1.0085     1.0000    -0.0085     0.9875     0.9876    -0.0001
  1 C      6.0078     6.0000    -0.0078     3.9446     3.9175     0.0271
  2 H      1.0085     1.0000    -0.0085     0.9876     0.9876    -0.0001
  3 C      6.0086     6.0000    -0.0086     3.9449     3.9178     0.0271
  4 H      1.0490     1.0000    -0.0490     1.0912     1.0746     0.0165
  5 C      6.3777     6.0000    -0.3777     3.6220     3.3997     0.2223
  6 H      1.0489     1.0000    -0.0489     1.0912     1.0746     0.0165
  7 C      6.3773     6.0000    -0.3773     3.6218     3.3992     0.2226
  8 H      1.0179     1.0000    -0.0179     0.9852     0.9878    -0.0026
  9 C      6.0614     6.0000    -0.0614     3.7504     3.7564    -0.0060
 10 H      1.0179     1.0000    -0.0179     0.9852     0.9878    -0.0026
 11 C      6.0614     6.0000    -0.0614     3.7502     3.7561    -0.0059
 12 H      1.0087     1.0000    -0.0087     0.9876     0.9877    -0.0001
 13 C      6.0081     6.0000    -0.0081     3.9445     3.9172     0.0273
 14 H      1.0087     1.0000    -0.0087     0.9876     0.9877    -0.0001
 15 C      6.0089     6.0000    -0.0089     3.9447     3.9175     0.0272

  Mayer bond orders larger than 0.100000
B(  0-H ,  1-C ) :   0.9685 B(  1-C ,  3-C ) :   0.9420 B(  1-C ,  5-C ) :   1.0768 
B(  1-C ,  9-C ) :   0.9524 B(  2-H ,  3-C ) :   0.9681 B(  3-C ,  7-C ) :   1.0770 
B(  3-C , 11-C ) :   0.9520 B(  4-H ,  5-C ) :   1.0385 B(  5-C , 13-C ) :   1.0772 
B(  6-H ,  7-C ) :   1.0383 B(  7-C , 15-C ) :   1.0773 B(  8-H ,  9-C ) :   1.0479 
B(  9-C , 11-C ) :   0.9031 B(  9-C , 13-C ) :   0.9520 B( 10-H , 11-C ) :   1.0484 
B( 11-C , 15-C ) :   0.9516 B( 12-H , 13-C ) :   0.9693 B( 13-C , 15-C ) :   0.9412 
B( 14-H , 15-C ) :   0.9689 

-------
TIMINGS
-------

Total SCF time: 0 days 0 hours 0 min 14 sec 

Total time                  ....      14.830 sec
Sum of individual times     ....      14.659 sec  ( 98.8%)

Fock matrix formation       ....      13.967 sec  ( 94.2%)
  XC integration            ....       1.173 sec  (  8.4% of F)
    Basis function eval.    ....       0.276 sec  ( 23.5% of XC)
    Density eval.           ....       0.292 sec  ( 24.9% of XC)
    XC-Functional eval.     ....       0.064 sec  (  5.5% of XC)
    XC-Potential eval.      ....       0.481 sec  ( 41.0% of XC)
Diagonalization             ....       0.074 sec  (  0.5%)
Density matrix formation    ....       0.005 sec  (  0.0%)
Population analysis         ....       0.006 sec  (  0.0%)
Initial guess               ....       0.127 sec  (  0.9%)
Orbital Transformation      ....       0.000 sec  (  0.0%)
Orbital Orthonormalization  ....       0.000 sec  (  0.0%)
DIIS solution               ....       0.012 sec  (  0.1%)
Grid generation             ....       0.468 sec  (  3.2%)

-------------------------   --------------------
FINAL SINGLE POINT ENERGY      -308.968561332579
-------------------------   --------------------


----------------------------------------------------------------------------
                           ORCA NUMERICAL GRADIENT
                              (4-process run)
----------------------------------------------------------------------------

I state                        ... 1
J state                        ... 0
Number of atoms                ... 16
Derivative's order of accuracy ... 2
Central differences            ... used
Number of displacements        ... 96
Numerical increment            ... 5.000e-03 bohr
Translation invariance         ... used

The output will be reduced. Please look at the following files:
SCF program output             ... >cubane.lastscf
Integral program output        ... >cubane.lastint
Gradient program output        ... >cubane.lastgrad

             <<<Displacing   2/coordinate 1 (+)>>>
             <<<Displacing   3/coordinate 1 (+)>>>
             <<<Displacing   2/coordinate 2 (+)>>>
             <<<Displacing   2/coordinate 3 (+)>>>
             <<<Displacing   3/coordinate 1 (-)>>>
             <<<Displacing   2/coordinate 1 (-)>>>
             <<<Displacing   2/coordinate 3 (-)>>>
             <<<Displacing   2/coordinate 2 (-)>>>
             <<<Displacing   3/coordinate 2 (+)>>>
             <<<Displacing   3/coordinate 3 (+)>>>
             <<<Displacing   4/coordinate 1 (+)>>>
             <<<Displacing   3/coordinate 2 (-)>>>
             <<<Displacing   4/coordinate 2 (+)>>>
             <<<Displacing   3/coordinate 3 (-)>>>
             <<<Displacing   4/coordinate 3 (+)>>>
             <<<Displacing   4/coordinate 1 (-)>>>
             <<<Displacing   5/coordinate 1 (+)>>>
             <<<Displacing   4/coordinate 2 (-)>>>
             <<<Displacing   5/coordinate 1 (-)>>>
             <<<Displacing   4/coordinate 3 (-)>>>
             <<<Displacing   5/coordinate 2 (+)>>>
             <<<Displacing   5/coordinate 3 (+)>>>
             <<<Displacing   6/coordinate 1 (+)>>>
             <<<Displacing   5/coordinate 2 (-)>>>
             <<<Displacing   6/coordinate 2 (+)>>>
             <<<Displacing   5/coordinate 3 (-)>>>
             <<<Displacing   6/coordinate 1 (-)>>>
             <<<Displacing   6/coordinate 3 (+)>>>
             <<<Displacing   6/coordinate 2 (-)>>>
             <<<Displacing   7/coordinate 1 (+)>>>
             <<<Displacing   7/coordinate 2 (+)>>>
             <<<Displacing   7/coordinate 1 (-)>>>
             <<<Displacing   6/coordinate 3 (-)>>>
             <<<Displacing   7/coordinate 3 (+)>>>
             <<<Displacing   8/coordinate 1 (+)>>>
             <<<Displacing   7/coordinate 2 (-)>>>
             <<<Displacing   8/coordinate 2 (+)>>>
             <<<Displacing   7/coordinate 3 (-)>>>
             <<<Displacing   8/coordinate 1 (-)>>>
             <<<Displacing   8/coordinate 3 (+)>>>
             <<<Displacing   9/coordinate 1 (+)>>>
             <<<Displacing   8/coordinate 2 (-)>>>
             <<<Displacing   9/coordinate 2 (+)>>>
             <<<Displacing   8/coordinate 3 (-)>>>
             <<<Displacing   9/coordinate 1 (-)>>>
             <<<Displacing   9/coordinate 2 (-)>>>
             <<<Displacing   9/coordinate 3 (+)>>>
             <<<Displacing  10/coordinate 1 (+)>>>
             <<<Displacing  10/coordinate 2 (+)>>>
             <<<Displacing   9/coordinate 3 (-)>>>
             <<<Displacing  10/coordinate 3 (+)>>>
             <<<Displacing  10/coordinate 1 (-)>>>
             <<<Displacing  10/coordinate 2 (-)>>>
             <<<Displacing  11/coordinate 1 (+)>>>
             <<<Displacing  10/coordinate 3 (-)>>>
             <<<Displacing  11/coordinate 2 (+)>>>
             <<<Displacing  11/coordinate 1 (-)>>>
             <<<Displacing  11/coordinate 3 (+)>>>
             <<<Displacing  11/coordinate 2 (-)>>>
             <<<Displacing  12/coordinate 1 (+)>>>
             <<<Displacing  12/coordinate 2 (+)>>>
             <<<Displacing  11/coordinate 3 (-)>>>
             <<<Displacing  12/coordinate 3 (+)>>>
             <<<Displacing  12/coordinate 1 (-)>>>
             <<<Displacing  12/coordinate 2 (-)>>>
             <<<Displacing  13/coordinate 1 (+)>>>
             <<<Displacing  12/coordinate 3 (-)>>>
             <<<Displacing  13/coordinate 2 (+)>>>
             <<<Displacing  13/coordinate 1 (-)>>>
             <<<Displacing  13/coordinate 3 (+)>>>
             <<<Displacing  13/coordinate 2 (-)>>>
             <<<Displacing  14/coordinate 1 (+)>>>
             <<<Displacing  13/coordinate 3 (-)>>>
             <<<Displacing  14/coordinate 2 (+)>>>
             <<<Displacing  14/coordinate 3 (+)>>>
             <<<Displacing  15/coordinate 1 (+)>>>
             <<<Displacing  14/coordinate 1 (-)>>>
             <<<Displacing  14/coordinate 2 (-)>>>
             <<<Displacing  15/coordinate 1 (-)>>>
             <<<Displacing  14/coordinate 3 (-)>>>
             <<<Displacing  15/coordinate 2 (+)>>>
             <<<Displacing  15/coordinate 3 (+)>>>
             <<<Displacing  16/coordinate 1 (+)>>>
             <<<Displacing  15/coordinate 2 (-)>>>
             <<<Displacing  16/coordinate 2 (+)>>>
             <<<Displacing  15/coordinate 3 (-)>>>
             <<<Displacing  16/coordinate 3 (+)>>>
             <<<Displacing  16/coordinate 1 (-)>>>
             <<<Displacing  16/coordinate 2 (-)>>>
             <<<Displacing  16/coordinate 3 (-)>>>

------------------------------
CARTESIAN GRADIENT (NUMERICAL)
-------------------------------
   1   H   :    0.000324864   -0.000045815   -0.000205444
   2   C   :   -0.000373172    0.000126961    0.000322348
   3   H   :    0.000304602    0.000043349    0.000277907
   4   C   :   -0.000403711   -0.000429385    0.000412818
   5   H   :   -0.000022568   -0.000005244    0.000069530
   6   C   :   -0.000324833    0.000145385   -0.000067070
   7   H   :   -0.000022575   -0.000000921    0.000078432
   8   C   :   -0.000324573    0.000157464   -0.000221273
   9   H   :    0.000006037   -0.000207991    0.000335869
  10   C   :    0.000323453    0.000872992   -0.001077719
  11   H   :    0.000006059    0.000205167    0.000364584
  12   C   :    0.000323518   -0.000563419   -0.000966692
  13   H   :   -0.000083625    0.000027458   -0.000145600
  14   C   :    0.000153237    0.000000465    0.000439242
  15   H   :   -0.000068754   -0.000024087   -0.000147085
  16   C   :    0.000182042   -0.000302381    0.000530154

Norm of the cartesian gradient     ...    0.002411430
RMS gradient                       ...    0.000348060
MAX gradient                       ...    0.001077719

-------
TIMINGS
-------

Total numerical gradient time      ...      558.259 sec

------------------------------------------------------------------------------
                         ORCA GEOMETRY RELAXATION STEP
------------------------------------------------------------------------------

Reading the OPT-File                    .... done
Getting information on internals        .... done
Copying old internal coords+grads       .... done
Making the new internal coordinates     .... (new redundants).... done
Validating the new internal coordinates .... (new redundants).... done
Calculating the B-matrix                .... done
Calculating the G,G- and P matrices     .... done
Transforming gradient to internals      .... done
Projecting the internal gradient        .... done
Number of atoms                         ....  16
Number of internal coordinates          .... 148
Current Energy                          ....  -308.968561333 Eh
Current gradient norm                   ....     0.002411430 Eh/bohr
Maximum allowed component of the step   ....  0.300
Current trust radius                    ....  0.300
Evaluating the initial hessian          ....  (Almloef) done
Projecting the Hessian                  .... done
Forming the augmented Hessian           .... done
Diagonalizing the augmented Hessian     .... done
Last element of RFO vector              ....  0.999957950
Lowest eigenvalues of augmented Hessian:
 -0.000008034  0.016027079  0.016166543  0.029047554  0.043111013
Length of the computed step             ....  0.009170932
The final length of the internal step   ....  0.009170932
Converting the step to cartesian space:
 Initial RMS(Int)=    0.0007538460
Transforming coordinates:
 Iter   0:  RMS(Cart)=    0.0012207915 RMS(Int)=    0.0007539101
 Iter   1:  RMS(Cart)=    0.0000007550 RMS(Int)=    0.0000004445
 Iter   2:  RMS(Cart)=    0.0000000007 RMS(Int)=    0.0000000005
done
Storing new coordinates                 .... done

                                .--------------------.
          ----------------------|Geometry convergence|-------------------------
          Item                value                   Tolerance       Converged
          ---------------------------------------------------------------------
          RMS gradient        0.0001076635            0.0000300000      NO
          MAX gradient        0.0004687269            0.0001000000      NO
          RMS step            0.0007538460            0.0006000000      NO
          MAX step            0.0022909906            0.0010000000      NO
          ........................................................
          Max(Bonds)      0.0009      Max(Angles)    0.06
          Max(Dihed)        0.13      Max(Improp)    0.00
          ---------------------------------------------------------------------

The optimization has not yet converged - more geometry cycles are needed


    ---------------------------------------------------------------------------
                         Redundant Internal Coordinates
                            (Angstroem and degrees)

        Definition                    Value    dE/dq     Step     New-Value
    ----------------------------------------------------------------------------
     1. B(C   1,H   0)                1.1012  0.000301 -0.0005    1.1007   
     2. B(C   3,C   1)                1.6250 -0.000263  0.0004    1.6254   
     3. B(C   3,H   2)                1.1012  0.000314 -0.0005    1.1007   
     4. B(C   5,H   4)                1.0954 -0.000082  0.0001    1.0956   
     5. B(C   5,C   1)                1.5036  0.000068 -0.0001    1.5035   
     6. B(C   7,H   6)                1.0954 -0.000061  0.0001    1.0955   
     7. B(C   7,C   3)                1.5039  0.000228 -0.0003    1.5036   
     8. B(C   9,H   8)                1.0988  0.000392 -0.0006    1.0982   
     9. B(C   9,C   1)                1.5712 -0.000369  0.0006    1.5718   
    10. B(C  11,H  10)                1.0988  0.000415 -0.0006    1.0981   
    11. B(C  11,C   9)                1.5440 -0.000398  0.0007    1.5447   
    12. B(C  11,C   3)                1.5712 -0.000469  0.0009    1.5721   
    13. B(C  13,H  12)                1.1007  0.000052 -0.0001    1.1007   
    14. B(C  13,C   9)                1.5720 -0.000187  0.0003    1.5723   
    15. B(C  13,C   5)                1.5030 -0.000145  0.0003    1.5033   
    16. B(C  15,H  14)                1.1007  0.000038 -0.0001    1.1007   
    17. B(C  15,C  13)                1.6250 -0.000253  0.0005    1.6255   
    18. B(C  15,C  11)                1.5719 -0.000141  0.0004    1.5723   
    19. B(C  15,C   7)                1.5033 -0.000098 -0.0001    1.5032   
    20. A(H   0,C   1,C   5)          122.31  0.000013    0.00    122.31   
    21. A(C   5,C   1,C   9)           88.26 -0.000016    0.01     88.26   
    22. A(H   0,C   1,C   3)          115.73 -0.000030    0.02    115.75   
    23. A(H   0,C   1,C   9)          124.96  0.000078   -0.05    124.91   
    24. A(C   3,C   1,C   5)          110.03  0.000036   -0.02    110.01   
    25. A(C   3,C   1,C   9)           88.50 -0.000097    0.04     88.55   
    26. A(H   2,C   3,C  11)          124.94 -0.000061    0.06    125.00   
    27. A(C   1,C   3,C  11)           88.54  0.000044   -0.03     88.51   
    28. A(H   2,C   3,C   7)          122.28  0.000082   -0.06    122.22   
    29. A(C   1,C   3,H   2)          115.73 -0.000033    0.01    115.74   
    30. A(C   1,C   3,C   7)          110.07 -0.000027    0.03    110.09   
    31. A(C   7,C   3,C  11)           88.24 -0.000022    0.01     88.26   
    32. A(H   4,C   5,C  13)          132.31  0.000036   -0.01    132.30   
    33. A(C   1,C   5,H   4)          132.34  0.000016   -0.01    132.33   
    34. A(C   1,C   5,C  13)           90.98 -0.000042   -0.00     90.97   
    35. A(H   6,C   7,C  15)          132.31  0.000078   -0.01    132.30   
    36. A(C   3,C   7,C  15)           90.95 -0.000104    0.02     90.97   
    37. A(C   3,C   7,H   6)          132.34  0.000024    0.00    132.34   
    38. A(C  11,C   9,C  13)           91.49  0.000077    0.00     91.50   
    39. A(H   8,C   9,C  13)          124.11 -0.000083    0.01    124.12   
    40. A(C   1,C   9,H   8)          124.09 -0.000043   -0.01    124.08   
    41. A(C   1,C   9,C  13)           86.02  0.000111   -0.03     85.99   
    42. A(H   8,C   9,C  11)          127.90 -0.000051    0.03    127.93   
    43. A(C   1,C   9,C  11)           91.50  0.000067   -0.03     91.46   
    44. A(C   3,C  11,C  15)           86.02  0.000139   -0.04     85.98   
    45. A(C   9,C  11,H  10)          127.90  0.000006    0.01    127.91   
    46. A(C   3,C  11,H  10)          124.12 -0.000035   -0.00    124.11   
    47. A(C   3,C  11,C   9)           91.46 -0.000014    0.02     91.48   
    48. A(H  10,C  11,C  15)          124.13 -0.000031    0.01    124.14   
    49. A(C   9,C  11,C  15)           91.46 -0.000025   -0.01     91.45   
    50. A(C   9,C  13,H  12)          125.23  0.000120   -0.06    125.17   
    51. A(C   5,C  13,H  12)          122.11 -0.000032    0.01    122.12   
[...]
      dx2y2   :     0.003984
      dxy     :     0.005339
  8 H s       :     0.995495  s :     0.995495
      pz      :     0.010027  p :     0.021563
      px      :     0.003882
      py      :     0.007654
  9 C s       :     3.415449  s :     3.415449
      pz      :     0.838804  p :     2.598809
      px      :     0.928556
      py      :     0.831449
      dz2     :     0.007572  d :     0.045362
      dxz     :     0.011058
      dyz     :     0.010169
      dx2y2   :     0.009942
      dxy     :     0.006622
 10 H s       :     0.995474  s :     0.995474
      pz      :     0.010033  p :     0.021563
      px      :     0.003881
      py      :     0.007649
 11 C s       :     3.415935  s :     3.415935
      pz      :     0.838374  p :     2.597994
      px      :     0.928244
      py      :     0.831376
      dz2     :     0.007571  d :     0.045353
      dxz     :     0.011054
      dyz     :     0.010168
      dx2y2   :     0.009937
      dxy     :     0.006623
 12 H s       :     0.984108  s :     0.984108
      pz      :     0.003604  p :     0.021490
      px      :     0.012120
      py      :     0.005766
 13 C s       :     3.171114  s :     3.171114
      pz      :     0.940220  p :     2.740576
      px      :     0.876668
      py      :     0.923688
      dz2     :     0.007998  d :     0.044254
      dxz     :     0.010386
      dyz     :     0.006127
      dx2y2   :     0.011678
      dxy     :     0.008064
 14 H s       :     0.984168  s :     0.984168
      pz      :     0.003605  p :     0.021489
      px      :     0.012120
      py      :     0.005765
 15 C s       :     3.171229  s :     3.171229
      pz      :     0.940183  p :     2.740162
      px      :     0.876211
      py      :     0.923769
      dz2     :     0.007995  d :     0.044269
      dxz     :     0.010394
      dyz     :     0.006134
      dx2y2   :     0.011681
      dxy     :     0.008066

SPIN
  0 H s       :     0.012627  s :     0.012627
      pz      :     0.000036  p :     0.000253
      px      :     0.000020
      py      :     0.000197
  1 C s       :    -0.002079  s :    -0.002079
      pz      :     0.001731  p :     0.040298
      px      :    -0.003347
      py      :     0.041914
      dz2     :     0.000856  d :     0.005991
      dxz     :     0.000060
      dyz     :     0.000488
      dx2y2   :     0.002762
      dxy     :     0.001825
  2 H s       :     0.012629  s :     0.012629
      pz      :     0.000037  p :     0.000253
      px      :     0.000020
      py      :     0.000197
  3 C s       :    -0.002077  s :    -0.002077
      pz      :     0.001734  p :     0.040290
      px      :    -0.003347
      py      :     0.041903
      dz2     :     0.000859  d :     0.006005
      dxz     :     0.000057
      dyz     :     0.000491
      dx2y2   :     0.002767
      dxy     :     0.001831
  4 H s       :     0.005185  s :     0.005185
      pz      :     0.000442  p :     0.005323
      px      :     0.000000
      py      :     0.004881
  5 C s       :     0.043790  s :     0.043790
      pz      :     0.114745  p :     0.807500
      px      :     0.000001
      py      :     0.692754
      dz2     :     0.000200  d :     0.000725
      dxz     :    -0.000000
      dyz     :     0.000479
      dx2y2   :     0.000046
      dxy     :     0.000000
  6 H s       :     0.005175  s :     0.005175
      pz      :     0.000449  p :     0.005327
      px      :     0.000000
      py      :     0.004878
  7 C s       :     0.043630  s :     0.043630
      pz      :     0.115773  p :     0.807434
      px      :     0.000000
      py      :     0.691661
      dz2     :     0.000201  d :     0.000726
      dxz     :     0.000000
      dyz     :     0.000480
      dx2y2   :     0.000045
      dxy     :     0.000000
  8 H s       :     0.003308  s :     0.003308
      pz      :     0.000030  p :     0.000049
      px      :     0.000000
      py      :     0.000019
  9 C s       :     0.006534  s :     0.006534
      pz      :     0.009053  p :     0.012857
      px      :     0.000000
      py      :     0.003803
      dz2     :     0.000133  d :     0.000562
      dxz     :     0.000000
      dyz     :     0.000201
      dx2y2   :     0.000228
      dxy     :     0.000000
 10 H s       :     0.003344  s :     0.003344
      pz      :     0.000030  p :     0.000049
      px      :     0.000000
      py      :     0.000019
 11 C s       :     0.006590  s :     0.006590
      pz      :     0.009110  p :     0.012885
      px      :     0.000000
      py      :     0.003775
      dz2     :     0.000133  d :     0.000565
      dxz     :     0.000000
      dyz     :     0.000203
      dx2y2   :     0.000229
      dxy     :     0.000000
 12 H s       :     0.012645  s :     0.012645
      pz      :     0.000037  p :     0.000254
      px      :     0.000020
      py      :     0.000197
 13 C s       :    -0.002087  s :    -0.002087
      pz      :     0.001734  p :     0.040350
      px      :    -0.003353
      py      :     0.041969
      dz2     :     0.000855  d :     0.005999
      dxz     :     0.000058
      dyz     :     0.000488
      dx2y2   :     0.002768
      dxy     :     0.001830
 14 H s       :     0.012622  s :     0.012622
      pz      :     0.000036  p :     0.000253
      px      :     0.000020
      py      :     0.000197
 15 C s       :    -0.002077  s :    -0.002077
      pz      :     0.001721  p :     0.040294
      px      :    -0.003355
      py      :     0.041928
      dz2     :     0.000860  d :     0.005999
      dxz     :     0.000058
      dyz     :     0.000485
      dx2y2   :     0.002765
      dxy     :     0.001830


                     *******************************
                     * LOEWDIN POPULATION ANALYSIS *
                     *******************************

-------------------------------------------
LOEWDIN ATOMIC CHARGES AND SPIN POPULATIONS
-------------------------------------------
   0 H :    0.011057    0.013113
   1 C :   -0.014458    0.070213
   2 H :    0.011032    0.013111
   3 C :   -0.014493    0.070227
   4 H :    0.001689    0.022988
   5 C :   -0.000416    0.786980
   6 H :    0.001690    0.022987
   7 C :   -0.000477    0.786766
   8 H :    0.007968    0.002563
   9 C :   -0.002458    0.020783
  10 H :    0.007985    0.002588
  11 C :   -0.002239    0.020937
  12 H :    0.011040    0.013125
  13 C :   -0.014514    0.070300
  14 H :    0.011055    0.013100
  15 C :   -0.014462    0.070219

----------------------------------------------------
LOEWDIN REDUCED ORBITAL CHARGES AND SPIN POPULATIONS
----------------------------------------------------
CHARGE
  0 H s       :     0.920312  s :     0.920312
      pz      :     0.013119  p :     0.068631
      px      :     0.036402
      py      :     0.019110
  1 C s       :     2.874930  s :     2.874930
      pz      :     1.021248  p :     3.035110
      px      :     1.022738
      py      :     0.991124
      dz2     :     0.018137  d :     0.104418
      dxz     :     0.026985
      dyz     :     0.011755
      dx2y2   :     0.028637
      dxy     :     0.018904
  2 H s       :     0.920335  s :     0.920335
      pz      :     0.013093  p :     0.068633
      px      :     0.036423
      py      :     0.019117
  3 C s       :     2.874990  s :     2.874990
      pz      :     1.021141  p :     3.035135
      px      :     1.022787
      py      :     0.991207
      dz2     :     0.018146  d :     0.104368
      dxz     :     0.026931
      dyz     :     0.011715
      dx2y2   :     0.028644
      dxy     :     0.018932
  4 H s       :     0.922827  s :     0.922827
      pz      :     0.044387  p :     0.075484
      px      :     0.011459
      py      :     0.019638
  5 C s       :     2.932012  s :     2.932012
      pz      :     0.998067  p :     2.986990
      px      :     1.027633
      py      :     0.961290
      dz2     :     0.026895  d :     0.081414
      dxz     :     0.026120
      dyz     :     0.007934
      dx2y2   :     0.008133
      dxy     :     0.012332
  6 H s       :     0.922809  s :     0.922809
      pz      :     0.044369  p :     0.075501
      px      :     0.011465
      py      :     0.019666
  7 C s       :     2.931819  s :     2.931819
      pz      :     0.997978  p :     2.987215
      px      :     1.027749
      py      :     0.961488
      dz2     :     0.026866  d :     0.081443
      dxz     :     0.026127
      dyz     :     0.007951
      dx2y2   :     0.008150
      dxy     :     0.012349
  8 H s       :     0.921030  s :     0.921030
      pz      :     0.032102  p :     0.071002
      px      :     0.014009
      py      :     0.024891
  9 C s       :     2.880318  s :     2.880318
      pz      :     1.005444  p :     3.018344
      px      :     1.000206
      py      :     1.012694
      dz2     :     0.016086  d :     0.103795
      dxz     :     0.028138
      dyz     :     0.022587
      dx2y2   :     0.025900
      dxy     :     0.011084
 10 H s       :     0.921010  s :     0.921010
      pz      :     0.032126  p :     0.071005
      px      :     0.013999
      py      :     0.024880
 11 C s       :     2.880506  s :     2.880506
      pz      :     1.005308  p :     3.017976
      px      :     0.999921
      py      :     1.012747
      dz2     :     0.016087  d :     0.103757
      dxz     :     0.028123
      dyz     :     0.022579
      dx2y2   :     0.025882
      dxy     :     0.011086
 12 H s       :     0.920332  s :     0.920332
      pz      :     0.013088  p :     0.068628
      px      :     0.036422
      py      :     0.019118
 13 C s       :     2.875015  s :     2.875015
      pz      :     1.021162  p :     3.035131
      px      :     1.022818
      py      :     0.991151
      dz2     :     0.018167  d :     0.104368
      dxz     :     0.026923
      dyz     :     0.011711
      dx2y2   :     0.028638
      dxy     :     0.018930
 14 H s       :     0.920320  s :     0.920320
      pz      :     0.013090  p :     0.068625
      px      :     0.036419
      py      :     0.019116
 15 C s       :     2.874956  s :     2.874956
      pz      :     1.021142  p :     3.035093
      px      :     1.022816
      py      :     0.991134
      dz2     :     0.018162  d :     0.104413
      dxz     :     0.026946
      dyz     :     0.011728
      dx2y2   :     0.028647
      dxy     :     0.018930

SPIN
  0 H s       :     0.011474  s :     0.011474
      pz      :     0.000141  p :     0.001640
      px      :     0.000029
      py      :     0.001470
  1 C s       :     0.010635  s :     0.010635
      pz      :     0.002779  p :     0.044821
      px      :     0.001514
      py      :     0.040528
      dz2     :     0.002370  d :     0.014758
      dxz     :     0.000069
      dyz     :     0.001099
      dx2y2   :     0.006831
      dxy     :     0.004389
  2 H s       :     0.011471  s :     0.011471
      pz      :     0.000143  p :     0.001640
      px      :     0.000030
      py      :     0.001467
  3 C s       :     0.010625  s :     0.010625
      pz      :     0.002802  p :     0.044801
      px      :     0.001500
      py      :     0.040499
      dz2     :     0.002380  d :     0.014801
      dxz     :     0.000066
      dyz     :     0.001106
      dx2y2   :     0.006844
      dxy     :     0.004405
  4 H s       :     0.004730  s :     0.004730
      pz      :     0.002189  p :     0.018259
      px      :     0.000000
      py      :     0.016069
  5 C s       :     0.016592  s :     0.016592
      pz      :     0.095389  p :     0.767806
      px      :     0.000001
      py      :     0.672416
      dz2     :     0.001003  d :     0.002582
      dxz     :     0.000000
      dyz     :     0.001291
      dx2y2   :     0.000288
      dxy     :     0.000000
  6 H s       :     0.004717  s :     0.004717
      pz      :     0.002218  p :     0.018269
      px      :     0.000000
      py      :     0.016051
  7 C s       :     0.016502  s :     0.016502
      pz      :     0.096243  p :     0.767682
      px      :     0.000000
      py      :     0.671438
      dz2     :     0.001004  d :     0.002583
      dxz     :     0.000000
      dyz     :     0.001292
      dx2y2   :     0.000286
      dxy     :     0.000000
  8 H s       :     0.002001  s :     0.002001
      pz      :     0.000447  p :     0.000562
      px      :     0.000000
      py      :     0.000115
  9 C s       :     0.009144  s :     0.009144
      pz      :     0.007046  p :     0.009778
      px      :     0.000000
      py      :     0.002732
      dz2     :     0.000512  d :     0.001861
      dxz     :     0.000000
      dyz     :     0.000447
      dx2y2   :     0.000901
      dxy     :     0.000000
 10 H s       :     0.002024  s :     0.002024
      pz      :     0.000451  p :     0.000564
      px      :     0.000000
      py      :     0.000114
 11 C s       :     0.009225  s :     0.009225
      pz      :     0.007131  p :     0.009848
      px      :     0.000000
      py      :     0.002717
      dz2     :     0.000511  d :     0.001865
      dxz     :     0.000000
      dyz     :     0.000450
      dx2y2   :     0.000903
      dxy     :     0.000000
 12 H s       :     0.011483  s :     0.011483
      pz      :     0.000142  p :     0.001642
      px      :     0.000030
      py      :     0.001470
 13 C s       :     0.010649  s :     0.010649
      pz      :     0.002796  p :     0.044868
      px      :     0.001502
      py      :     0.040570
      dz2     :     0.002369  d :     0.014783
      dxz     :     0.000067
      dyz     :     0.001098
      dx2y2   :     0.006846
      dxy     :     0.004403
 14 H s       :     0.011460  s :     0.011460
      pz      :     0.000142  p :     0.001640
      px      :     0.000030
      py      :     0.001468
 15 C s       :     0.010625  s :     0.010625
      pz      :     0.002781  p :     0.044808
      px      :     0.001501
      py      :     0.040526
      dz2     :     0.002381  d :     0.014785
      dxz     :     0.000066
      dyz     :     0.001093
      dx2y2   :     0.006840
      dxy     :     0.004405


                      *****************************
                      * MAYER POPULATION ANALYSIS *
                      *****************************

  NA   - Mulliken gross atomic population
  ZA   - Total nuclear charge
  QA   - Mulliken gross atomic charge
  VA   - Mayer's total valence
  BVA  - Mayer's bonded valence
  FA   - Mayer's free valence

  ATOM       NA         ZA         QA         VA         BVA        FA
  0 H      1.0086     1.0000    -0.0086     0.9876     0.9876    -0.0000
  1 C      6.0075     6.0000    -0.0075     3.9448     3.9176     0.0272
  2 H      1.0087     1.0000    -0.0087     0.9876     0.9877    -0.0001
  3 C      6.0085     6.0000    -0.0085     3.9448     3.9177     0.0271
  4 H      1.0488     1.0000    -0.0488     1.0911     1.0746     0.0165
  5 C      6.3775     6.0000    -0.3775     3.6222     3.3996     0.2226
  6 H      1.0489     1.0000    -0.0489     1.0911     1.0746     0.0165
  7 C      6.3776     6.0000    -0.3776     3.6222     3.3998     0.2223
  8 H      1.0181     1.0000    -0.0181     0.9853     0.9878    -0.0025
  9 C      6.0617     6.0000    -0.0617     3.7514     3.7574    -0.0060
 10 H      1.0181     1.0000    -0.0181     0.9853     0.9879    -0.0026
 11 C      6.0614     6.0000    -0.0614     3.7502     3.7561    -0.0059
 12 H      1.0086     1.0000    -0.0086     0.9876     0.9877    -0.0001
 13 C      6.0084     6.0000    -0.0084     3.9448     3.9177     0.0272
 14 H      1.0087     1.0000    -0.0087     0.9876     0.9877    -0.0001
 15 C      6.0081     6.0000    -0.0081     3.9440     3.9168     0.0272

  Mayer bond orders larger than 0.100000
B(  0-H ,  1-C ) :   0.9683 B(  1-C ,  3-C ) :   0.9416 B(  1-C ,  5-C ) :   1.0772 
B(  1-C ,  9-C ) :   0.9527 B(  2-H ,  3-C ) :   0.9686 B(  3-C ,  7-C ) :   1.0773 
B(  3-C , 11-C ) :   0.9519 B(  4-H ,  5-C ) :   1.0382 B(  5-C , 13-C ) :   1.0776 
B(  6-H ,  7-C ) :   1.0385 B(  7-C , 15-C ) :   1.0772 B(  8-H ,  9-C ) :   1.0482 
B(  9-C , 11-C ) :   0.9028 B(  9-C , 13-C ) :   0.9522 B( 10-H , 11-C ) :   1.0483 
B( 11-C , 15-C ) :   0.9516 B( 12-H , 13-C ) :   0.9687 B( 13-C , 15-C ) :   0.9412 
B( 14-H , 15-C ) :   0.9687 

-------
TIMINGS
-------

Total SCF time: 0 days 0 hours 0 min 5 sec 

Total time                  ....       5.398 sec
Sum of individual times     ....       5.179 sec  ( 95.9%)

Fock matrix formation       ....       4.687 sec  ( 86.8%)
  XC integration            ....       0.549 sec  ( 11.7% of F)
    Basis function eval.    ....       0.126 sec  ( 23.0% of XC)
    Density eval.           ....       0.140 sec  ( 25.4% of XC)
    XC-Functional eval.     ....       0.030 sec  (  5.5% of XC)
    XC-Potential eval.      ....       0.226 sec  ( 41.1% of XC)
Diagonalization             ....       0.025 sec  (  0.5%)
Density matrix formation    ....       0.006 sec  (  0.1%)
Population analysis         ....       0.006 sec  (  0.1%)
Initial guess               ....       0.019 sec  (  0.4%)
Orbital Transformation      ....       0.000 sec  (  0.0%)
Orbital Orthonormalization  ....       0.011 sec  (  0.2%)
DIIS solution               ....       0.003 sec  (  0.1%)
Grid generation             ....       0.434 sec  (  8.0%)

-------------------------   --------------------
FINAL SINGLE POINT ENERGY      -308.968563990824
-------------------------   --------------------

                                *** OPTIMIZATION RUN DONE ***

                            ***************************************
                            *     ORCA property calculations      *
                            ***************************************

                                    ---------------------
                                    Active property flags
                                    ---------------------
   (+) Dipole Moment


------------------------------------------------------------------------------
                       ORCA ELECTRIC PROPERTIES CALCULATION
------------------------------------------------------------------------------

Dipole Moment Calculation                       ... on
Quadrupole Moment Calculation                   ... off
Polarizability Calculation                      ... off
GBWName                                         ... cubane.gbw
Electron density file                           ... cubane.scfp
The origin for moment calculation is the CENTER OF MASS  = ( 0.000001, -0.000663  0.007228)

-------------
DIPOLE MOMENT
-------------
                                X             Y             Z
Electronic contribution:      0.00083      -0.00119      -1.40995
Nuclear contribution   :     -0.00001       0.00165      -0.09135
                        -----------------------------------------
Total Dipole Moment    :      0.00082       0.00046      -1.50130
                        -----------------------------------------
Magnitude (a.u.)       :      1.50130
Magnitude (Debye)      :      3.81600



--------------------
Rotational spectrum 
--------------------
 
Rotational constants in cm-1:     0.120223     0.097849     0.095382 
Rotational constants in MHz :  3604.187484  2933.450472  2859.481697 

 Dipole components along the rotational axes: 
x,y,z [a.u.] :     0.001056     0.005520    -1.501291 
x,y,z [Debye]:     0.002684     0.014030    -3.815978 

 

Timings for individual modules:

Sum of individual times         ...     1737.744 sec (=  28.962 min)
GTO integral calculation        ...        1.744 sec (=   0.029 min)   0.1 %
SCF iterations                  ...       34.532 sec (=   0.576 min)   2.0 %
SCF Gradient evaluation         ...     1701.247 sec (=  28.354 min)  97.9 %
Geometry relaxation             ...        0.221 sec (=   0.004 min)   0.0 %
                             ****ORCA TERMINATED NORMALLY****
TOTAL RUN TIME: 0 days 0 hours 28 minutes 58 seconds 300 msec
