
                                 *****************
                                 * O   R   C   A *
                                 *****************

           --- An Ab Initio, DFT and Semiempirical electronic structure package ---

                  #######################################################
                  #                        -***-                        #
                  #  Department of molecular theory and spectroscopy    #
                  #              Directorship: Frank Neese              #
                  # Max Planck Institute for Chemical Energy Conversion #
                  #                  D-45470 Muelheim/Ruhr              #
                  #                       Germany                       #
                  #                                                     #
                  #                  All rights reserved                #
                  #                        -***-                        #
                  #######################################################


                         Program Version 3.0.3 - RELEASE   -


 With contributions from (in alphabetic order):
   Ute Becker             : Parallelization
   Dmytro Bykov           : SCF Hessian
   Dmitry Ganyushin       : Spin-Orbit,Spin-Spin,Magnetic field MRCI
   Andreas Hansen         : Spin unrestricted coupled pair/coupled cluster methods
   Dimitrios Liakos       : Extrapolation schemes; parallel MDCI
   Robert Izsak           : Overlap fitted RIJCOSX, COSX-SCS-MP3
   Christian Kollmar      : KDIIS, OOCD, Brueckner-CCSD(T), CCSD density
   Simone Kossmann        : Meta GGA functionals, TD-DFT gradient, OOMP2, MP2 Hessian
   Taras Petrenko         : DFT Hessian,TD-DFT gradient, ASA and ECA modules, normal mode analysis, Resonance Raman, ABS, FL, XAS/XES, NRVS
   Christoph Reimann      : Effective Core Potentials
   Michael Roemelt        : Restricted open shell CIS
   Christoph Riplinger    : Improved optimizer, TS searches, QM/MM, DLPNO-CCSD
   Barbara Sandhoefer     : DKH picture change effects
   Igor Schapiro          : Molecular dynamics
   Kantharuban Sivalingam : CASSCF convergence, NEVPT2
   Boris Wezisla          : Elementary symmetry handling
   Frank Wennmohs         : Technical directorship


 We gratefully acknowledge several colleagues who have allowed us to
 interface, adapt or use parts of their codes:
   Stefan Grimme, W. Hujo, H. Kruse, T. Risthaus : VdW corrections, initial TS optimization,
                                                   DFT functionals, gCP
   Ed Valeev                                     : LibInt (2-el integral package), F12 methods
   Garnet Chan, S. Sharma, R. Olivares           : DMRG
   Ulf Ekstrom                                   : XCFun DFT Library
   Mihaly Kallay                                 : mrcc  (arbitrary order and MRCC methods)
   Andreas Klamt, Michael Diedenhofen            : otool_cosmo (COSMO solvation model)
   Frank Weinhold                                : gennbo (NPA and NBO analysis)
   Christopher J. Cramer and Donald G. Truhlar   : smd solvation model


 Your calculation uses the libint2 library for the computation of 2-el integrals
 For citations please refer to: http://libint.valeyev.net

 This ORCA versions uses:
   CBLAS   interface :  Fast vector & matrix operations
   LAPACKE interface :  Fast linear algebra routines
   SCALAPACK package :  Parallel linear algebra routines


Your calculation utilizes the basis: Ahlrichs-VDZ
Cite in your paper:
H - Kr: A. Schaefer, H. Horn and R. Ahlrichs, J. Chem. Phys. 97, 2571 (1992).

Your calculation utilizes the basis: Ahlrichs SVPalls1+f
Cite in your paper:
Rb - Xe: A. Schaefer, C. Huber and R. Ahlrichs, J. Chem. Phys. 100, 5829 (1994).

================================================================================
                                        WARNINGS
                       Please study these warnings very carefully!
================================================================================
Now building the actual basis set
WARNING: Geometry optimizations can change the point-group symmetry!

WARNING: your system is open-shell and RHF/RKS was chosen
  ===> : WILL SWITCH to UHF/UKS


WARNING: Geometry Optimization
  ===> : Switching off AutoStart
         For restart on a previous wavefunction, please use MOREAD


INFO   : the flag for use of LIBINT has been found!

================================================================================
                                       INPUT FILE
================================================================================
NAME = /home/vladimir/git/private/ORCA/C8H8/T-cubane-1/optimize/DFT/B3LYP/SVP/./cubane.inp
|  1> # ================================================================
|  2> # Orca input file for cubane B3LYP/def2-SVP geometry optimization
|  3> # ================================================================
|  4> ! DFT B3LYP def2-SVP TightSCF TightOPT UseSym
|  5> #! PAL4
|  6> 
|  7> * xyz 0 3
|  8>   H                     2.06558205    -1.28286326     0.02211469
|  9>   C                     1.07464059    -0.80757103    -0.05079586
| 10>   H                     2.06558205     1.28286326     0.02211469
| 11>   C                     1.07464059     0.80757103    -0.05079586
| 12>   H                     0.00000000    -1.50306671    -2.05955799
| 13>   C                     0.00000000    -1.33057164    -0.97564719
| 14>   H                     0.00000000     1.50306671    -2.05955799
| 15>   C                     0.00000000     1.33057164    -0.97564719
| 16>   H                     0.00000000    -1.45938535     1.96899476
| 17>   C                     0.00000000    -0.77726259     1.10647220
| 18>   H                     0.00000000     1.45938535     1.96899476
| 19>   C                     0.00000000     0.77726259     1.10647220
| 20>   H                    -2.06558205    -1.28286326     0.02211469
| 21>   C                    -1.07464059    -0.80757103    -0.05079586
| 22>   H                    -2.06558205     1.28286326     0.02211469
| 23>   C                    -1.07464059     0.80757103    -0.05079586
| 24> *
| 25> 
| 26>                          ****END OF INPUT****
================================================================================

------------------------------------------------------------------------------
                            SYMMETRY HANDLING SETUP
------------------------------------------------------------------------------

------------------
SYMMETRY DETECTION
------------------
Preparing Data                    ... done
Detection Threshold:    SymThresh ... 1.0000e-04

Point Group will now be determined:
Moving molecule to center of mass ... done

POINT GROUP                       ... C2v

The coordinates will now be cleaned:
Moving to standard coord frame    ... done
(Changed main axis to z and one of the symmetry planes to xz plane)
Structure cleanup requested       ... yes
Selected point group              ... C2v
Cleaning Tolerance      SymThresh ... 1.0000e-04

Some missing point group data is constructed:
Constructing symmetry operations  ... done
Creating atom transfer table      ... done
Creating asymmetric unit          ... done

Cleaning coordinates              ... done

-----------------------------------------------
SYMMETRY-PERFECTED CARTESIAN COORDINATES (A.U.)
-----------------------------------------------
   0 H     3.90338438   2.42426023  -0.03074409 
   1 C     2.03077641   1.52608808   0.10703689 
   2 H     3.90338438  -2.42426023  -0.03074409 
   3 C     2.03077641  -1.52608808   0.10703689 
   4 H     0.00000000   2.84038444   3.90304718 
   5 C     0.00000000   2.51441600   1.85475261 
   6 H     0.00000000  -2.84038444   3.90304718 
   7 C     0.00000000  -2.51441600   1.85475261 
   8 H     0.00000000   2.75783864  -3.70981423 
   9 C     0.00000000   1.46881343  -2.07988281 
  10 H     0.00000000  -2.75783864  -3.70981423 
  11 C     0.00000000  -1.46881343  -2.07988281 
  12 H    -3.90338438   2.42426023  -0.03074409 
  13 C    -2.03077641   1.52608808   0.10703689 
  14 H    -3.90338438  -2.42426023  -0.03074409 
  15 C    -2.03077641  -1.52608808   0.10703689 

------------------
SYMMETRY REDUCTION
------------------
ORCA supports only abelian point groups.
It is now checked, if the determined point group is supported:
Point Group ( C2v   ) is          ... supported

(Re)building abelian point group:
Creating Character Table          ... done
Making direct product table       ... done

----------------------
ASYMMETRIC UNIT IN C2v
----------------------
  #  AT     MASS              COORDS (A.U.)             BAS
   0 H    1.0080   3.90338438   2.42426023  -0.03074409   0
   1 C   12.0110   2.03077641   1.52608808   0.10703689   0
   4 H    1.0080   0.00000000   2.84038444   3.90304718   0
   5 C   12.0110   0.00000000   2.51441600   1.85475261   0
   8 H    1.0080   0.00000000   2.75783864  -3.70981423   0
   9 C   12.0110   0.00000000   1.46881343  -2.07988281   0

----------------------
SYMMETRY ADAPTED BASIS
----------------------
The coefficients for the symmetry adapted linear combinations (SALCS)
of basis functions will now be computed:
Number of basis functions         ...   152
Preparing memory                  ... done
Constructing Gamma(red)           ... done
Reducing Gamma(red)               ... done
Constructing SALCs                ... done
Checking SALC integrity           ... nothing suspicious
Normalizing SALCs                 ... done

Storing the symmetry object:
Symmetry file                     ... /home/vladimir/git/private/ORCA/C8H8/T-cubane-1/optimize/DFT/B3LYP/SVP/./cubane.sym.tmp
Writing symmetry information      ... done

                       *****************************
                       * Geometry Optimization Run *
                       *****************************

Geometry optimization settings:
Update method            Update   .... BFGS
Choice of coordinates    CoordSys .... Redundant Internals
Initial Hessian          InHess   .... Almoef's Model

Convergence Tolerances:
Energy Change            TolE     ....  1.0000e-06 Eh
Max. Gradient            TolMAXG  ....  1.0000e-04 Eh/bohr
RMS Gradient             TolRMSG  ....  3.0000e-05 Eh/bohr
Max. Displacement        TolMAXD  ....  1.0000e-03 bohr
RMS Displacement         TolRMSD  ....  6.0000e-04 bohr

------------------------------------------------------------------------------
                        ORCA OPTIMIZATION COORDINATE SETUP
------------------------------------------------------------------------------

The optimization will be done in new redundant internal coordinates
Making redundant internal coordinates   ...  (new redundants) done
Evaluating the initial hessian          ...  (Almloef) done
Evaluating the coordinates              ...  done
Calculating the B-matrix                .... done
Calculating the G-matrix                .... done
Diagonalizing the G-matrix              .... done
The first mode is                       ....  106
The number of degrees of freedom        ....   42

    -----------------------------------------------------------------
                    Redundant Internal Coordinates


    -----------------------------------------------------------------
         Definition                    Initial Value    Approx d2E/dq
    -----------------------------------------------------------------
      1. B(C   1,H   0)                  1.1014         0.345272   
      2. B(C   3,C   1)                  1.6151         0.273237   
      3. B(C   3,H   2)                  1.1014         0.345272   
      4. B(C   5,H   4)                  1.0976         0.350249   
      5. B(C   5,C   1)                  1.5112         0.400284   
      6. B(C   7,H   6)                  1.0976         0.350249   
      7. B(C   7,C   3)                  1.5112         0.400284   
      8. B(C   9,H   8)                  1.0997         0.347554   
      9. B(C   9,C   1)                  1.5796         0.311381   
     10. B(C  11,H  10)                  1.0997         0.347554   
     11. B(C  11,C   9)                  1.5545         0.341389   
     12. B(C  11,C   3)                  1.5796         0.311381   
     13. B(C  13,H  12)                  1.1014         0.345272   
     14. B(C  13,C   9)                  1.5796         0.311381   
     15. B(C  13,C   5)                  1.5112         0.400284   
     16. B(C  15,H  14)                  1.1014         0.345272   
     17. B(C  15,C  13)                  1.6151         0.273237   
     18. B(C  15,C  11)                  1.5796         0.311381   
     19. B(C  15,C   7)                  1.5112         0.400284   
     20. A(H   0,C   1,C   5)          122.0692         0.325762   
     21. A(C   5,C   1,C   9)           88.3508         0.356421   
     22. A(H   0,C   1,C   3)          115.5638         0.306159   
     23. A(H   0,C   1,C   9)          124.8803         0.312678   
     24. A(C   3,C   1,C   5)          110.2479         0.348627   
     25. A(C   3,C   1,C   9)           88.9006         0.334280   
     26. A(H   2,C   3,C  11)          124.8803         0.312678   
     27. A(C   1,C   3,C  11)           88.9006         0.334280   
     28. A(H   2,C   3,C   7)          122.0692         0.325762   
     29. A(C   1,C   3,H   2)          115.5638         0.306159   
     30. A(C   1,C   3,C   7)          110.2479         0.348627   
     31. A(C   7,C   3,C  11)           88.3508         0.356421   
     32. A(H   4,C   5,C  13)          131.2071         0.326530   
     33. A(C   1,C   5,H   4)          131.2071         0.326530   
     34. A(C   1,C   5,C  13)           90.6516         0.372063   
     35. A(H   6,C   7,C  15)          131.2071         0.326530   
     36. A(C   3,C   7,C  15)           90.6516         0.372063   
     37. A(C   3,C   7,H   6)          131.2071         0.326530   
     38. A(C  11,C   9,C  13)           91.0994         0.346959   
     39. A(H   8,C   9,C  13)          124.2466         0.313012   
     40. A(C   1,C   9,H   8)          124.2466         0.313012   
     41. A(C   1,C   9,C  13)           85.7401         0.341643   
     42. A(H   8,C   9,C  11)          128.3386         0.317726   
     43. A(C   1,C   9,C  11)           91.0994         0.346959   
     44. A(C   3,C  11,C  15)           85.7401         0.341643   
     45. A(C   9,C  11,H  10)          128.3386         0.317726   
     46. A(C   3,C  11,H  10)          124.2466         0.313012   
     47. A(C   3,C  11,C   9)           91.0994         0.346959   
     48. A(H  10,C  11,C  15)          124.2466         0.313012   
     49. A(C   9,C  11,C  15)           91.0994         0.346959   
     50. A(C   9,C  13,H  12)          124.8803         0.312678   
     51. A(C   5,C  13,H  12)          122.0692         0.325762   
     52. A(C   5,C  13,C   9)           88.3508         0.356421   
     53. A(H  12,C  13,C  15)          115.5638         0.306159   
     54. A(C   9,C  13,C  15)           88.9006         0.334280   
     55. A(C   5,C  13,C  15)          110.2479         0.348627   
     56. A(C  13,C  15,H  14)          115.5638         0.306159   
     57. A(C  11,C  15,H  14)          124.8803         0.312678   
     58. A(C   7,C  15,H  14)          122.0692         0.325762   
     59. A(C  11,C  15,C  13)           88.9006         0.334280   
     60. A(C   7,C  15,C  13)          110.2479         0.348627   
     61. A(C   7,C  15,C  11)           88.3508         0.356421   
     62. D(C   7,C   3,C   1,C   9)    -87.8359         0.006409   
     63. D(C  11,C   3,C   1,C   9)     -0.0000         0.006409   
     64. D(H   2,C   3,C   1,H   0)      0.0000         0.006409   
     65. D(C  11,C   3,C   1,C   5)     87.8359         0.006409   
     66. D(H   2,C   3,C   1,C   5)   -143.4923         0.006409   
     67. D(H   2,C   3,C   1,C   9)    128.6717         0.006409   
     68. D(C   7,C   3,C   1,H   0)    143.4923         0.006409   
     69. D(C   7,C   3,C   1,C   5)      0.0000         0.006409   
     70. D(C  11,C   3,C   1,H   0)   -128.6717         0.006409   
     71. D(C  13,C   5,C   1,C   9)     20.1257         0.011890   
     72. D(C  13,C   5,C   1,C   3)    -68.0933         0.011890   
     73. D(C  13,C   5,C   1,H   0)    151.2031         0.011890   
     74. D(H   4,C   5,C   1,C   9)    172.4597         0.011890   
     75. D(H   4,C   5,C   1,C   3)     84.2408         0.011890   
     76. D(H   4,C   5,C   1,H   0)    -56.4628         0.011890   
     77. D(C  15,C   7,C   3,C  11)    -20.1257         0.011890   
     78. D(C  15,C   7,C   3,C   1)     68.0933         0.011890   
     79. D(C  15,C   7,C   3,H   2)   -151.2031         0.011890   
     80. D(H   6,C   7,C   3,C  11)   -172.4597         0.011890   
     81. D(H   6,C   7,C   3,H   2)     56.4628         0.011890   
     82. D(H   6,C   7,C   3,C   1)    -84.2408         0.011890   
     83. D(C  11,C   9,C   1,C   3)      0.0000         0.008000   
     84. D(C  13,C   9,C   1,H   0)   -148.1331         0.008000   
     85. D(C  13,C   9,C   1,C   5)    -19.2735         0.008000   
     86. D(C  13,C   9,C   1,C   3)     91.0208         0.008000   
     87. D(C  11,C   9,C   1,H   0)    120.8461         0.008000   
     88. D(H   8,C   9,C   1,C   5)    109.9218         0.008000   
     89. D(H   8,C   9,C   1,H   0)    -18.9378         0.008000   
     90. D(C  11,C   9,C   1,C   5)   -110.2943         0.008000   
     91. D(H   8,C   9,C   1,C   3)   -139.7839         0.008000   
     92. D(C   9,C  11,C   3,C   1)      0.0000         0.008000   
     93. D(C  15,C  11,C   9,C  13)      0.0000         0.009430   
     94. D(C  15,C  11,C   9,C   1)     85.7596         0.009430   
     95. D(H  10,C  11,C   9,C  13)    137.1202         0.009430   
     96. D(H  10,C  11,C   9,H   8)      0.0000         0.009430   
     97. D(H  10,C  11,C   3,H   2)     18.9378         0.008000   
     98. D(C   3,C  11,C   9,C   1)      0.0000         0.009430   
     99. D(C  15,C  11,C   3,H   2)    148.1331         0.008000   
    100. D(C  15,C  11,C   3,C   1)    -91.0208         0.008000   
    101. D(H  10,C  11,C   3,C   7)   -109.9218         0.008000   
    102. D(C  15,C  11,C   3,C   7)     19.2735         0.008000   
    103. D(C   3,C  11,C   9,C  13)    -85.7596         0.009430   
    104. D(H  10,C  11,C   3,C   1)    139.7839         0.008000   
    105. D(H  10,C  11,C   9,C   1)   -137.1202         0.009430   
    106. D(C   9,C  11,C   3,C   7)    110.2943         0.008000   
    107. D(C  15,C  11,C   9,H   8)   -137.1202         0.009430   
    108. D(C   9,C  11,C   3,H   2)   -120.8461         0.008000   
    109. D(C   3,C  11,C   9,H   8)    137.1202         0.009430   
    110. D(C  15,C  13,C   9,H   8)    139.7839         0.008000   
    111. D(C  15,C  13,C   9,C   1)    -91.0208         0.008000   
    112. D(H  12,C  13,C   9,C  11)   -120.8461         0.008000   
    113. D(H  12,C  13,C   9,C   1)    148.1331         0.008000   
    114. D(C   5,C  13,C   9,C  11)    110.2943         0.008000   
    115. D(C   5,C  13,C   9,H   8)   -109.9218         0.008000   
    116. D(C   5,C  13,C   9,C   1)     19.2735         0.008000   
    117. D(C  15,C  13,C   5,H   4)    -84.2408         0.011890   
    118. D(C  15,C  13,C   5,C   1)     68.0933         0.011890   
    119. D(H  12,C  13,C   9,H   8)     18.9378         0.008000   
    120. D(H  12,C  13,C   5,H   4)     56.4628         0.011890   
    121. D(H  12,C  13,C   5,C   1)   -151.2031         0.011890   
    122. D(C   9,C  13,C   5,H   4)   -172.4597         0.011890   
    123. D(C  15,C  13,C   9,C  11)      0.0000         0.008000   
    124. D(C   9,C  13,C   5,C   1)    -20.1257         0.011890   
    125. D(H  14,C  15,C  13,C   9)   -128.6717         0.006409   
    126. D(H  14,C  15,C  13,C   5)    143.4923         0.006409   
    127. D(C  11,C  15,C  13,H  12)    128.6717         0.006409   
    128. D(C  11,C  15,C  13,C   9)      0.0000         0.006409   
    129. D(C  11,C  15,C  13,C   5)    -87.8359         0.006409   
    130. D(C   7,C  15,C  13,H  12)   -143.4923         0.006409   
    131. D(C   7,C  15,C  13,C   9)     87.8359         0.006409   
    132. D(H  14,C  15,C  11,H  10)    -18.9378         0.008000   
    133. D(H  14,C  15,C  11,C   9)    120.8461         0.008000   
    134. D(H  14,C  15,C  11,C   3)   -148.1331         0.008000   
    135. D(C  13,C  15,C  11,H  10)   -139.7839         0.008000   
    136. D(C  13,C  15,C  11,C   9)      0.0000         0.008000   
    137. D(C  13,C  15,C  11,C   3)     91.0208         0.008000   
    138. D(C   7,C  15,C  11,H  10)    109.9218         0.008000   
    139. D(C   7,C  15,C  13,C   5)     -0.0000         0.006409   
    140. D(C   7,C  15,C  11,C   9)   -110.2943         0.008000   
    141. D(C   7,C  15,C  11,C   3)    -19.2735         0.008000   
    142. D(H  14,C  15,C   7,H   6)    -56.4628         0.011890   
    143. D(H  14,C  15,C   7,C   3)    151.2031         0.011890   
    144. D(C  13,C  15,C   7,H   6)     84.2408         0.011890   
    145. D(C  13,C  15,C   7,C   3)    -68.0933         0.011890   
    146. D(C  11,C  15,C   7,H   6)    172.4597         0.011890   
    147. D(H  14,C  15,C  13,H  12)      0.0000         0.006409   
    148. D(C  11,C  15,C   7,C   3)     20.1257         0.011890   
    -----------------------------------------------------------------

Number of atoms                         .... 16
Number of degrees of freedom            .... 148

         *************************************************************
         *                GEOMETRY OPTIMIZATION CYCLE   1            *
         *************************************************************
---------------------------------
CARTESIAN COORDINATES (ANGSTROEM)
---------------------------------
  H      2.065582    1.282863   -0.016269
  C      1.074641    0.807571    0.056641
  H      2.065582   -1.282863   -0.016269
  C      1.074641   -0.807571    0.056641
  H      0.000000    1.503067    2.065404
  C      0.000000    1.330572    0.981493
  H      0.000000   -1.503067    2.065404
  C      0.000000   -1.330572    0.981493
  H      0.000000    1.459385   -1.963149
  C      0.000000    0.777263   -1.100627
  H      0.000000   -1.459385   -1.963149
  C      0.000000   -0.777263   -1.100627
  H     -2.065582    1.282863   -0.016269
  C     -1.074641    0.807571    0.056641
  H     -2.065582   -1.282863   -0.016269
  C     -1.074641   -0.807571    0.056641

----------------------------
CARTESIAN COORDINATES (A.U.)
----------------------------
  NO LB      ZA    FRAG    MASS        X           Y           Z
   0 H     1.0000    0     1.008          3.903384381643634          2.424260228669413         -0.030744086090615
   1 C     6.0000    0    12.011          2.030776407495553          1.526088080388703          0.107036885682957
   2 H     1.0000    0     1.008          3.903384381643634         -2.424260228669413         -0.030744086090615
   3 C     6.0000    0    12.011          2.030776407495553         -1.526088080388703          0.107036885682957
   4 H     1.0000    0     1.008          0.000000000000000          2.840384442914035          3.903047179575275
   5 C     6.0000    0    12.011          0.000000000000000          2.514416001162460          1.854752613975785
   6 H     1.0000    0     1.008          0.000000000000000         -2.840384442914035          3.903047179575275
   7 C     6.0000    0    12.011          0.000000000000000         -2.514416001162460          1.854752613975785
   8 H     1.0000    0     1.008          0.000000000000000          2.757838635356813         -3.709814233980051
   9 C     6.0000    0    12.011          0.000000000000000          1.468813429242319         -2.079882811251390
  10 H     1.0000    0     1.008          0.000000000000000         -2.757838635356813         -3.709814233980051
  11 C     6.0000    0    12.011          0.000000000000000         -1.468813429242319         -2.079882811251390
  12 H     1.0000    0     1.008         -3.903384381643634          2.424260228669413         -0.030744086090615
  13 C     6.0000    0    12.011         -2.030776407495553          1.526088080388703          0.107036885682957
  14 H     1.0000    0     1.008         -3.903384381643634         -2.424260228669413         -0.030744086090615
  15 C     6.0000    0    12.011         -2.030776407495553         -1.526088080388703          0.107036885682957

--------------------------------
INTERNAL COORDINATES (ANGSTROEM)
--------------------------------
 H      0   0   0   0.000000     0.000     0.000
 C      1   0   0   1.101446     0.000     0.000
 H      2   1   0   2.314562    90.141     0.000
 C      3   2   1   1.101446    39.014   180.000
 H      2   1   3   2.381951   109.617   120.937
 C      5   2   1   1.097551    28.510   131.422
 H      4   3   2   2.381951   109.617   239.063
 C      7   4   3   1.097551    28.510   228.578
 H      2   1   3   2.378922   103.414   244.766
 C      9   2   1   1.099653    33.289   164.115
 H      4   3   2   2.378922   103.414   115.234
 C     11   4   3   1.099653    33.289   195.885
 H      6   5   2   2.294435   115.641   163.987
 C     13   6   5   1.101446    33.927   224.074
 H      8   7   4   2.294435   115.641   196.013
 C     15   8   7   1.101446    33.927   135.926

---------------------------
INTERNAL COORDINATES (A.U.)
---------------------------
 H      0   0   0   0.000000     0.000     0.000
 C      1   0   0   2.081432     0.000     0.000
 H      2   1   0   4.373888    90.141     0.000
 C      3   2   1   2.081432    39.014   180.000
 H      2   1   3   4.501236   109.617   120.937
 C      5   2   1   2.074070    28.510   131.422
 H      4   3   2   4.501236   109.617   239.063
 C      7   4   3   2.074070    28.510   228.578
 H      2   1   3   4.495511   103.414   244.766
 C      9   2   1   2.078043    33.289   164.115
 H      4   3   2   4.495511   103.414   115.234
 C     11   4   3   2.078043    33.289   195.885
 H      6   5   2   4.335855   115.641   163.987
 C     13   6   5   2.081432    33.927   224.074
 H      8   7   4   4.335855   115.641   196.013
 C     15   8   7   2.081432    33.927   135.926

---------------------
BASIS SET INFORMATION
---------------------
There are 2 groups of distinct atoms

 Group   1 Type H   : 4s1p contracted to 2s1p pattern {31/1}
 Group   2 Type C   : 7s4p1d contracted to 3s2p1d pattern {511/31/1}

Atom   0H    basis set group =>   1
Atom   1C    basis set group =>   2
Atom   2H    basis set group =>   1
Atom   3C    basis set group =>   2
Atom   4H    basis set group =>   1
Atom   5C    basis set group =>   2
Atom   6H    basis set group =>   1
Atom   7C    basis set group =>   2
Atom   8H    basis set group =>   1
Atom   9C    basis set group =>   2
Atom  10H    basis set group =>   1
Atom  11C    basis set group =>   2
Atom  12H    basis set group =>   1
Atom  13C    basis set group =>   2
Atom  14H    basis set group =>   1
Atom  15C    basis set group =>   2
------------------------------------------------------------------------------
                           ORCA GTO INTEGRAL CALCULATION
------------------------------------------------------------------------------

                         BASIS SET STATISTICS AND STARTUP INFO

 # of primitive gaussian shells          ...  136
 # of primitive gaussian functions       ...  248
 # of contracted shell                   ...   72
 # of contracted basis functions         ...  152
 Highest angular momentum                ...    2
 Maximum contraction depth               ...    5
 Integral package used                   ... LIBINT
 Integral threshhold            Thresh   ...  2.500e-11
 Primitive cut-off              TCut     ...  2.500e-12


                              INTEGRAL EVALUATION

 One electron integrals                  ... done
 Pre-screening matrix                    ... done
 Shell pair data                         ... done (   0.001 sec)

-------------------------------------------------------------------------------
                                 ORCA SCF
-------------------------------------------------------------------------------

------------
SCF SETTINGS
------------
Hamiltonian:
 Density Functional     Method          .... DFT(GTOs)
 Exchange Functional    Exchange        .... B88
   X-Alpha parameter    XAlpha          ....  0.666667
   Becke's b parameter  XBeta           ....  0.004200
 Correlation Functional Correlation     .... LYP
 LDA part of GGA corr.  LDAOpt          .... VWN-5
 Gradients option       PostSCFGGA      .... off
 Hybrid DFT is turned on
   Fraction HF Exchange ScalHFX         ....  0.200000
   Scaling of DF-GGA-X  ScalDFX         ....  0.720000
   Scaling of DF-GGA-C  ScalDFC         ....  0.810000
   Scaling of DF-LDA-C  ScalLDAC        ....  1.000000
   Perturbative correction              ....  0.000000
   NL short-range parameter             ....  4.800000


General Settings:
 Integral files         IntName         .... /home/vladimir/git/private/ORCA/C8H8/T-cubane-1/optimize/DFT/B3LYP/SVP/./cubane
 Hartree-Fock type      HFTyp           .... UHF
 Total Charge           Charge          ....    0
 Multiplicity           Mult            ....    3
 Number of Electrons    NEL             ....   56
 Basis Dimension        Dim             ....  152
 Nuclear Repulsion      ENuc            ....    357.2184326142 Eh

 Symmetry handling      UseSym         .... ON
 Point group                           .... C2v
 Used point group                      .... C2v
 Number of irreps                      .... 4
   Irrep   A1 has   47 symmetry adapted basis functions (ofs=   0)
   Irrep   A2 has   29 symmetry adapted basis functions (ofs=  47)
   Irrep   B1 has   29 symmetry adapted basis functions (ofs=  76)
   Irrep   B2 has   47 symmetry adapted basis functions (ofs= 105)

Convergence Acceleration:
 DIIS                   CNVDIIS         .... on
   Start iteration      DIISMaxIt       ....    12
   Startup error        DIISStart       ....  0.200000
   # of expansion vecs  DIISMaxEq       ....     5
   Bias factor          DIISBfac        ....   1.050
   Max. coefficient     DIISMaxC        ....  10.000
 Newton-Raphson         CNVNR           .... off
 SOSCF                  CNVSOSCF        .... off
 Level Shifting         CNVShift        .... on
   Level shift para.    LevelShift      ....    0.2500
   Turn off err/grad.   ShiftErr        ....    0.0010
 Zerner damping         CNVZerner       .... off
 Static damping         CNVDamp         .... on
   Fraction old density DampFac         ....    0.7000
   Max. Damping (<1)    DampMax         ....    0.9800
   Min. Damping (>=0)   DampMin         ....    0.0000
   Turn off err/grad.   DampErr         ....    0.1000
 Fernandez-Rico         CNVRico         .... off

SCF Procedure:
 Maximum # iterations   MaxIter         ....   125
 SCF integral mode      SCFMode         .... Direct
   Integral package                     .... LIBINT
 Reset frequeny         DirectResetFreq ....    20
 Integral Threshold     Thresh          ....  2.500e-11 Eh
 Primitive CutOff       TCut            ....  2.500e-12 Eh

Convergence Tolerance:
 Convergence Check Mode ConvCheckMode   .... Total+1el-Energy
 Energy Change          TolE            ....  1.000e-08 Eh
 1-El. energy change                    ....  1.000e-05 Eh
 DIIS Error             TolErr          ....  5.000e-07


Diagonalization of the overlap matrix:
Smallest eigenvalue                        ... 8.604e-05
Time for diagonalization                   ...    0.008 sec
Threshold for overlap eigenvalues          ... 1.000e-08
Number of eigenvalues below threshold      ... 0
Time for construction of square roots      ...    0.001 sec
Producing symmetrization matrix            ... done (   0.000 sec)
Total time needed                          ...    0.009 sec

-------------------
DFT GRID GENERATION
-------------------

General Integration Accuracy     IntAcc      ...  4.340
Radial Grid Type                 RadialGrid  ... Gauss-Chebyshev
Angular Grid (max. acc.)         AngularGrid ... Lebedev-110
Angular grid pruning method      GridPruning ... 3 (G Style)
Weight generation scheme         WeightScheme... Becke
Basis function cutoff            BFCut       ...    1.0000e-11
Integration weight cutoff        WCut        ...    1.0000e-14
Grids for H and He will be reduced by one unit

# of grid points (after initial pruning)     ...  19600 (   0.0 sec)
# of grid points (after weights+screening)   ...  17858 (   0.0 sec)
nearest neighbour list constructed           ...    0.0 sec
Grid point re-assignment to atoms done       ...    0.0 sec
Grid point division into batches done        ...    0.0 sec
Reduced shell lists constructed in    0.3 sec

Total number of grid points                  ...    17858
Total number of batches                      ...      290
Average number of points per batch           ...       61
Average number of grid points per atom       ...     1116
Average number of shells per batch           ...    58.56 (81.33%)
Average number of basis functions per batch  ...   124.83 (82.12%)
Average number of large shells per batch     ...    47.73 (81.50%)
Average number of large basis fcns per batch ...    99.33 (79.57%)
Maximum spatial batch extension              ...  26.47, 21.40, 24.55 au
Average spatial batch extension              ...   3.95,  3.71,  3.97 au

Time for grid setup =    0.300 sec

------------------------------
INITIAL GUESS: MODEL POTENTIAL
------------------------------
Loading Hartree-Fock densities                     ... done
Calculating cut-offs                               ... done
Setting up the integral package                    ... done
Initializing the effective Hamiltonian             ... done
Starting the Coulomb interaction                   ... done (   0.2 sec)
Reading the grid                                   ... done
Mapping shells                                     ... done
Starting the XC term evaluation                    ... done (   0.4 sec)
  promolecular density results
     # of electrons  =     56.010557507
     EX              =    -43.450819264
     EC              =     -1.855094869
     EX+EC           =    -45.305914133
done (   0.0 sec)
Diagonalizing the Hamiltonian                      ... done (   0.0 sec)
Back transforming the eigenvectors                 ... done (   0.0 sec)
Now organizing SCF variables                       ... done
The symmetry of the initial guess is 3-B2
Irrep occupations for operator 0
    A1 -   11
    A2 -    4
    B1 -    5
    B2 -    9
Irrep occupations for operator 1
    A1 -   10
    A2 -    4
    B1 -    5
    B2 -    8
                      ------------------
                      INITIAL GUESS DONE (   0.9 sec)
                      ------------------
--------------
SCF ITERATIONS
--------------
ITER       Energy         Delta-E        Max-DP      RMS-DP      [F,P]     Damp
               ***  Starting incremental Fock matrix formation  ***
  0   -308.8316333102   0.000000000000 0.04189812  0.00183872  0.0969925 0.7000
  1   -308.8844995287  -0.052866218501 0.02759910  0.00101423  0.0340379 0.7000
                               ***Turning on DIIS***
  2   -308.9113763238  -0.026876795151 0.06564643  0.00245874  0.0164056 0.0000
  3   -308.9691398120  -0.057763488162 0.01094919  0.00041620  0.0116869 0.0000
  4   -308.9702611088  -0.001121296837 0.00736050  0.00023626  0.0055165 0.0000
  5   -308.9706238200  -0.000362711218 0.00201938  0.00006431  0.0006678 0.0000
  6   -308.9706452320  -0.000021411991 0.00066871  0.00001870  0.0004030 0.0000
  7   -308.9706490197  -0.000003787709 0.00033416  0.00000830  0.0001784 0.0000
  8   -308.9706501004  -0.000001080681 0.00021137  0.00000582  0.0000350 0.0000
  9   -308.9706502760  -0.000000175612 0.00004986  0.00000141  0.0000115 0.0000
 10   -308.9706503075  -0.000000031471 0.00001293  0.00000048  0.0000104 0.0000
 11   -308.9706503121  -0.000000004570 0.00001107  0.00000037  0.0000029 0.0000
 12   -308.9706503145  -0.000000002463 0.00000480  0.00000015  0.0000012 0.0000
                            ***DIIS convergence achieved***

               *****************************************************
               *                     SUCCESS                       *
               *           SCF CONVERGED AFTER  13 CYCLES          *
               *****************************************************

Setting up the final grid:

General Integration Accuracy     IntAcc      ...  4.670
Radial Grid Type                 RadialGrid  ... Gauss-Chebyshev
Angular Grid (max. acc.)         AngularGrid ... Lebedev-302
Angular grid pruning method      GridPruning ... 3 (G Style)
Weight generation scheme         WeightScheme... Becke
Basis function cutoff            BFCut       ...    1.0000e-11
Integration weight cutoff        WCut        ...    1.0000e-14
Grids for H and He will be reduced by one unit

# of grid points (after initial pruning)     ...  76848 (   0.0 sec)
# of grid points (after weights+screening)   ...  68960 (   0.1 sec)
nearest neighbour list constructed           ...    0.0 sec
Grid point re-assignment to atoms done       ...    0.0 sec
Grid point division into batches done        ...    0.2 sec
Reduced shell lists constructed in    1.1 sec

Total number of grid points                  ...    68960
Total number of batches                      ...     1086
Average number of points per batch           ...       63
Average number of grid points per atom       ...     4310
Average number of shells per batch           ...    53.74 (74.63%)
Average number of basis functions per batch  ...   113.83 (74.89%)
Average number of large shells per batch     ...    42.77 (79.60%)
Average number of large basis fcns per batch ...    88.06 (77.36%)
Maximum spatial batch extension              ...  22.72, 21.17, 20.64 au
Average spatial batch extension              ...   2.60,  2.45,  2.58 au

Final grid set up in    1.3 sec
Final integration                            ... done (   1.9 sec)
Change in XC energy                          ...    -0.000020363
Integrated number of electrons               ...    56.000014611
Previous integrated no of electrons          ...    56.003607800

----------------
TOTAL SCF ENERGY
----------------

Total Energy       :         -308.97067068 Eh           -8407.51938 eV

Components:
Nuclear Repulsion  :          357.21843261 Eh            9720.40773 eV
Electronic Energy  :         -666.18910329 Eh          -18127.92711 eV

One Electron Energy:        -1123.72492155 Eh          -30578.10968 eV
Two Electron Energy:          457.53581825 Eh           12450.18257 eV

Virial components:
Potential Energy   :         -614.42623191 Eh          -16719.38777 eV
Kinetic Energy     :          305.45556123 Eh            8311.86839 eV
Virial Ratio       :            2.01150776


DFT components:
N(Alpha)           :       29.000023070191 electrons
N(Beta)            :       26.999991541146 electrons
N(Total)           :       56.000014611337 electrons
E(X)               :      -35.050795593745 Eh       
E(C)               :       -2.177716045820 Eh       
E(XC)              :      -37.228511639565 Eh       

---------------
SCF CONVERGENCE
---------------

  Last Energy change         ...   -1.2325e-09  Tolerance :   1.0000e-08
  Last MAX-Density change    ...    1.3429e-06  Tolerance :   1.0000e-07
  Last RMS-Density change    ...    5.4329e-08  Tolerance :   5.0000e-09
  Last DIIS Error            ...    9.2925e-07  Tolerance :   5.0000e-07

             **** THE GBW FILE WAS UPDATED (/home/vladimir/git/private/ORCA/C8H8/T-cubane-1/optimize/DFT/B3LYP/SVP/./cubane.gbw) ****
             **** DENSITY FILE WAS UPDATED (/home/vladimir/git/private/ORCA/C8H8/T-cubane-1/optimize/DFT/B3LYP/SVP/./cubane.scfp.tmp) ****
             **** ENERGY FILE WAS UPDATED (/home/vladimir/git/private/ORCA/C8H8/T-cubane-1/optimize/DFT/B3LYP/SVP/./cubane.en.tmp) ****
----------------------
UHF SPIN CONTAMINATION
----------------------

Warning: in a DFT calculation there is little theoretical justification to 
         calculate <S**2> as in Hartree-Fock theory. We will do it anyways
         but you should keep in mind that the values have only limited relevance

Expectation value of <S**2>     :     2.006439
Ideal value S*(S+1) for S=1.0   :     2.000000
Deviation                       :     0.006439

----------------
ORBITAL ENERGIES
----------------
                 SPIN UP ORBITALS
  NO   OCC          E(Eh)            E(eV)    Irrep 
   0   1.0000     -10.192731      -277.3583    1-B2
   1   1.0000     -10.192658      -277.3563    1-A1
   2   1.0000     -10.192651      -277.3561    1-A2
   3   1.0000     -10.192580      -277.3542    1-B1
   4   1.0000     -10.190821      -277.3063    2-B2
   5   1.0000     -10.190665      -277.3021    2-A1
   6   1.0000     -10.188283      -277.2373    3-A1
   7   1.0000     -10.188257      -277.2366    3-B2
   8   1.0000      -0.920146       -25.0384    4-A1
   9   1.0000      -0.773078       -21.0365    4-B2
  10   1.0000      -0.705279       -19.1916    2-B1
  11   1.0000      -0.687191       -18.6994    5-A1
  12   1.0000      -0.574760       -15.6400    5-B2
  13   1.0000      -0.566678       -15.4201    2-A2
  14   1.0000      -0.551196       -14.9988    6-A1
  15   1.0000      -0.522232       -14.2107    7-A1
  16   1.0000      -0.468419       -12.7463    6-B2
  17   1.0000      -0.465658       -12.6712    8-A1
  18   1.0000      -0.446415       -12.1476    7-B2
  19   1.0000      -0.426135       -11.5957    3-B1
  20   1.0000      -0.389101       -10.5880    9-A1
  21   1.0000      -0.380020       -10.3409    4-B1
  22   1.0000      -0.318372        -8.6633    3-A2
  23   1.0000      -0.316373        -8.6089    5-B1
  24   1.0000      -0.288486        -7.8501   10-A1
  25   1.0000      -0.286227        -7.7886    8-B2
  26   1.0000      -0.264982        -7.2105    4-A2
  27   1.0000      -0.217617        -5.9217    9-B2
  28   1.0000      -0.176930        -4.8145   11-A1
  29   0.0000       0.065425         1.7803   12-A1
  30   0.0000       0.073999         2.0136   13-A1
  31   0.0000       0.080472         2.1898    6-B1
  32   0.0000       0.110253         3.0001   10-B2
  33   0.0000       0.114405         3.1131   14-A1
  34   0.0000       0.127882         3.4799    7-B1
  35   0.0000       0.132676         3.6103   15-A1
  36   0.0000       0.135128         3.6770    5-A2
  37   0.0000       0.138738         3.7753   11-B2
  38   0.0000       0.150928         4.1069   12-B2
  39   0.0000       0.159580         4.3424   13-B2
  40   0.0000       0.186080         5.0635    6-A2
  41   0.0000       0.197095         5.3632    8-B1
  42   0.0000       0.226741         6.1699   14-B2
  43   0.0000       0.257596         7.0095    7-A2
  44   0.0000       0.259783         7.0690   16-A1
  45   0.0000       0.317650         8.6437    8-A2
  46   0.0000       0.328096         8.9280   15-B2
  47   0.0000       0.373199        10.1553   17-A1
  48   0.0000       0.431782        11.7494   16-B2
  49   0.0000       0.434486        11.8230    9-B1
  50   0.0000       0.436217        11.8701   18-A1
  51   0.0000       0.475589        12.9414   19-A1
  52   0.0000       0.478871        13.0307   10-B1
  53   0.0000       0.483156        13.1473   17-B2
  54   0.0000       0.494950        13.4683    9-A2
  55   0.0000       0.521337        14.1863   20-A1
  56   0.0000       0.524970        14.2852   11-B1
  57   0.0000       0.535317        14.5667   21-A1
  58   0.0000       0.540522        14.7083   18-B2
  59   0.0000       0.557103        15.1595   10-A2
  60   0.0000       0.591811        16.1040   19-B2
  61   0.0000       0.611834        16.6489   22-A1
  62   0.0000       0.616256        16.7692   20-B2
  63   0.0000       0.621047        16.8996   12-B1
  64   0.0000       0.637729        17.3535   11-A2
  65   0.0000       0.640818        17.4375   23-A1
  66   0.0000       0.652380        17.7522   21-B2
  67   0.0000       0.667907        18.1747   24-A1
  68   0.0000       0.670284        18.2393   12-A2
  69   0.0000       0.681425        18.5425   13-B1
  70   0.0000       0.685522        18.6540   25-A1
  71   0.0000       0.700483        19.0611   22-B2
  72   0.0000       0.711875        19.3711   14-B1
  73   0.0000       0.719087        19.5673   23-B2
  74   0.0000       0.724023        19.7017   26-A1
  75   0.0000       0.741525        20.1779   24-B2
  76   0.0000       0.741983        20.1904   13-A2
  77   0.0000       0.770275        20.9603   25-B2
  78   0.0000       0.819830        22.3087   27-A1
  79   0.0000       0.916793        24.9472   26-B2
  80   0.0000       0.921033        25.0626   15-B1
  81   0.0000       0.926132        25.2013   14-A2
  82   0.0000       0.934449        25.4277   28-A1
  83   0.0000       1.080735        29.4083   29-A1
  84   0.0000       1.135463        30.8975   16-B1
  85   0.0000       1.161683        31.6110   27-B2
  86   0.0000       1.291271        35.1373   28-B2
  87   0.0000       1.306145        35.5420   15-A2
  88   0.0000       1.372384        37.3445   30-A1
  89   0.0000       1.480012        40.2732   16-A2
  90   0.0000       1.487617        40.4801   17-B1
  91   0.0000       1.533954        41.7410   31-A1
  92   0.0000       1.557899        42.3926   18-B1
  93   0.0000       1.560443        42.4618   17-A2
  94   0.0000       1.572207        42.7819   29-B2
  95   0.0000       1.579625        42.9838   32-A1
  96   0.0000       1.605991        43.7012   30-B2
  97   0.0000       1.607762        43.7494   19-B1
  98   0.0000       1.664811        45.3018   33-A1
  99   0.0000       1.665246        45.3136   20-B1
 100   0.0000       1.703688        46.3597   34-A1
 101   0.0000       1.725499        46.9532   31-B2
 102   0.0000       1.750115        47.6230   21-B1
 103   0.0000       1.765793        48.0497   35-A1
 104   0.0000       1.767420        48.0940   32-B2
 105   0.0000       1.769502        48.1506   18-A2
 106   0.0000       1.830991        49.8238   22-B1
 107   0.0000       1.866729        50.7963   33-B2
 108   0.0000       1.867159        50.8080   36-A1
 109   0.0000       1.888689        51.3938   23-B1
 110   0.0000       1.890005        51.4297   19-A2
 111   0.0000       1.905818        51.8599   37-A1
 112   0.0000       1.945493        52.9396   34-B2
 113   0.0000       1.963545        53.4308   35-B2
 114   0.0000       1.970227        53.6126   20-A2
 115   0.0000       1.989968        54.1498   38-A1
 116   0.0000       2.026784        55.1516   21-A2
 117   0.0000       2.045446        55.6594   39-A1
 118   0.0000       2.065972        56.2180   24-B1
 119   0.0000       2.068547        56.2880   22-A2
 120   0.0000       2.070121        56.3309   36-B2
 121   0.0000       2.095908        57.0325   40-A1
 122   0.0000       2.117997        57.6336   37-B2
 123   0.0000       2.128417        57.9172   23-A2
 124   0.0000       2.156863        58.6912   25-B1
 125   0.0000       2.205664        60.0192   38-B2
 126   0.0000       2.209851        60.1331   41-A1
 127   0.0000       2.218029        60.3556   26-B1
 128   0.0000       2.249680        61.2169   42-A1
 129   0.0000       2.279105        62.0176   24-A2
 130   0.0000       2.316826        63.0440   39-B2
 131   0.0000       2.380833        64.7858   40-B2
 132   0.0000       2.393794        65.1384   43-A1
 133   0.0000       2.439195        66.3739   25-A2
 134   0.0000       2.469671        67.2032   41-B2
 135   0.0000       2.515967        68.4629   27-B1
 136   0.0000       2.521720        68.6195   44-A1
 137   0.0000       2.580392        70.2160   42-B2
 138   0.0000       2.619613        71.2833   26-A2
 139   0.0000       2.646530        72.0157   43-B2
 140   0.0000       2.760146        75.1074   45-A1
 141   0.0000       2.776591        75.5549   28-B1
 142   0.0000       2.778462        75.6058   27-A2
 143   0.0000       2.793551        76.0164   44-B2
 144   0.0000       2.844556        77.4043   29-B1
 145   0.0000       2.924845        79.5891   46-A1
 146   0.0000       2.942424        80.0674   28-A2
 147   0.0000       2.958904        80.5159   45-B2
 148   0.0000       3.035370        82.5966   29-A2
 149   0.0000       3.058883        83.2364   47-A1
 150   0.0000       3.131566        85.2142   46-B2
 151   0.0000       3.344758        91.0155   47-B2

                 SPIN DOWN ORBITALS
  NO   OCC          E(Eh)            E(eV)    Irrep 
   0   1.0000     -10.192024      -277.3391    1-B2
   1   1.0000     -10.191961      -277.3374    1-A2
   2   1.0000     -10.191957      -277.3373    1-A1
   3   1.0000     -10.191884      -277.3353    1-B1
   4   1.0000     -10.187653      -277.2201    2-A1
   5   1.0000     -10.187627      -277.2194    2-B2
   6   1.0000     -10.176615      -276.9198    3-B2
   7   1.0000     -10.176462      -276.9156    3-A1
   8   1.0000      -0.911619       -24.8064    4-A1
   9   1.0000      -0.756158       -20.5761    4-B2
  10   1.0000      -0.699500       -19.0344    2-B1
  11   1.0000      -0.670336       -18.2408    5-A1
  12   1.0000      -0.563022       -15.3206    2-A2
  13   1.0000      -0.558427       -15.1956    5-B2
  14   1.0000      -0.536960       -14.6114    6-A1
  15   1.0000      -0.516067       -14.0429    7-A1
  16   1.0000      -0.460892       -12.5415    6-B2
  17   1.0000      -0.452524       -12.3138    8-A1
  18   1.0000      -0.441684       -12.0188    7-B2
  19   1.0000      -0.422160       -11.4876    3-B1
  20   1.0000      -0.373494       -10.1633    4-B1
  21   1.0000      -0.367410        -9.9977    9-A1
  22   1.0000      -0.309366        -8.4183    3-A2
  23   1.0000      -0.306887        -8.3508    5-B1
  24   1.0000      -0.282423        -7.6851   10-A1
  25   1.0000      -0.280622        -7.6361    8-B2
  26   1.0000      -0.263469        -7.1693    4-A2
  27   0.0000      -0.065272        -1.7761    9-B2
  28   0.0000      -0.041097        -1.1183   11-A1
  29   0.0000       0.068996         1.8775   12-A1
  30   0.0000       0.081789         2.2256    6-B1
  31   0.0000       0.082074         2.2333   13-A1
  32   0.0000       0.113892         3.0992   10-B2
  33   0.0000       0.119166         3.2427   14-A1
  34   0.0000       0.129233         3.5166    7-B1
  35   0.0000       0.136115         3.7039   15-A1
  36   0.0000       0.137846         3.7510    5-A2
  37   0.0000       0.144317         3.9271   11-B2
  38   0.0000       0.155823         4.2402   12-B2
  39   0.0000       0.174759         4.7554   13-B2
  40   0.0000       0.191035         5.1983    6-A2
  41   0.0000       0.206800         5.6273    8-B1
  42   0.0000       0.235771         6.4157   14-B2
  43   0.0000       0.264343         7.1932    7-A2
  44   0.0000       0.275051         7.4845   16-A1
  45   0.0000       0.321004         8.7349    8-A2
  46   0.0000       0.339929         9.2499   15-B2
  47   0.0000       0.380807        10.3623   17-A1
  48   0.0000       0.437401        11.9023    9-B1
  49   0.0000       0.447482        12.1766   18-A1
  50   0.0000       0.457119        12.4389   16-B2
  51   0.0000       0.482569        13.1314   10-B1
  52   0.0000       0.482976        13.1425   19-A1
  53   0.0000       0.499235        13.5849    9-A2
  54   0.0000       0.499753        13.5990   17-B2
  55   0.0000       0.528839        14.3904   11-B1
  56   0.0000       0.531325        14.4581   20-A1
  57   0.0000       0.554042        15.0762   18-B2
  58   0.0000       0.563285        15.3278   10-A2
  59   0.0000       0.576365        15.6837   21-A1
  60   0.0000       0.606310        16.4985   19-B2
  61   0.0000       0.623910        16.9775   12-B1
  62   0.0000       0.629073        17.1179   22-A1
  63   0.0000       0.630324        17.1520   20-B2
  64   0.0000       0.640324        17.4241   11-A2
  65   0.0000       0.651518        17.7287   23-A1
  66   0.0000       0.659104        17.9351   21-B2
  67   0.0000       0.675060        18.3693   12-A2
  68   0.0000       0.677960        18.4482   24-A1
  69   0.0000       0.686987        18.6939   13-B1
  70   0.0000       0.695360        18.9217   25-A1
  71   0.0000       0.707999        19.2656   22-B2
  72   0.0000       0.713446        19.4139   14-B1
  73   0.0000       0.724575        19.7167   23-B2
  74   0.0000       0.732525        19.9330   26-A1
  75   0.0000       0.745487        20.2857   13-A2
  76   0.0000       0.749554        20.3964   24-B2
  77   0.0000       0.779610        21.2143   25-B2
  78   0.0000       0.833854        22.6903   27-A1
  79   0.0000       0.926923        25.2229   26-B2
  80   0.0000       0.927863        25.2484   14-A2
  81   0.0000       0.930723        25.3263   15-B1
  82   0.0000       0.938584        25.5402   28-A1
  83   0.0000       1.083960        29.4960   29-A1
  84   0.0000       1.137421        30.9508   16-B1
  85   0.0000       1.168037        31.7839   27-B2
  86   0.0000       1.294920        35.2366   28-B2
  87   0.0000       1.322695        35.9924   15-A2
  88   0.0000       1.378719        37.5168   30-A1
  89   0.0000       1.482950        40.3531   16-A2
  90   0.0000       1.491583        40.5880   17-B1
  91   0.0000       1.536371        41.8068   31-A1
  92   0.0000       1.562969        42.5306   18-B1
  93   0.0000       1.563040        42.5325   17-A2
  94   0.0000       1.580390        43.0046   29-B2
  95   0.0000       1.588286        43.2194   32-A1
  96   0.0000       1.612125        43.8682   19-B1
  97   0.0000       1.632843        44.4319   30-B2
  98   0.0000       1.671459        45.4827   20-B1
  99   0.0000       1.681844        45.7653   33-A1
 100   0.0000       1.708333        46.4861   34-A1
 101   0.0000       1.727642        47.0115   31-B2
 102   0.0000       1.753430        47.7133   21-B1
 103   0.0000       1.770809        48.1862   35-A1
 104   0.0000       1.772371        48.2287   18-A2
 105   0.0000       1.786365        48.6095   32-B2
 106   0.0000       1.848330        50.2956   22-B1
 107   0.0000       1.872603        50.9561   36-A1
 108   0.0000       1.886265        51.3279   33-B2
 109   0.0000       1.890852        51.4527   23-B1
 110   0.0000       1.909643        51.9640   19-A2
 111   0.0000       1.913348        52.0648   37-A1
 112   0.0000       1.949358        53.0447   34-B2
 113   0.0000       1.975150        53.7466   35-B2
 114   0.0000       1.978228        53.8303   20-A2
 115   0.0000       1.994388        54.2701   38-A1
 116   0.0000       2.033724        55.3404   21-A2
 117   0.0000       2.065085        56.1938   39-A1
 118   0.0000       2.068546        56.2880   24-B1
 119   0.0000       2.070861        56.3510   22-A2
 120   0.0000       2.086930        56.7882   36-B2
 121   0.0000       2.110858        57.4394   40-A1
 122   0.0000       2.131718        58.0070   37-B2
 123   0.0000       2.132138        58.0184   23-A2
 124   0.0000       2.159753        58.7699   25-B1
 125   0.0000       2.213484        60.2320   38-B2
 126   0.0000       2.231144        60.7125   41-A1
 127   0.0000       2.248447        61.1833   26-B1
 128   0.0000       2.278578        62.0033   42-A1
 129   0.0000       2.284545        62.1656   24-A2
 130   0.0000       2.329541        63.3900   39-B2
 131   0.0000       2.384219        64.8779   40-B2
 132   0.0000       2.404996        65.4433   43-A1
 133   0.0000       2.453200        66.7550   25-A2
 134   0.0000       2.482316        67.5473   41-B2
 135   0.0000       2.521404        68.6109   27-B1
 136   0.0000       2.537401        69.0462   44-A1
 137   0.0000       2.590825        70.4999   42-B2
 138   0.0000       2.625666        71.4480   26-A2
 139   0.0000       2.652443        72.1766   43-B2
 140   0.0000       2.761727        75.1504   45-A1
 141   0.0000       2.779532        75.6349   28-B1
 142   0.0000       2.782721        75.7217   27-A2
 143   0.0000       2.798332        76.1465   44-B2
 144   0.0000       2.851483        77.5928   29-B1
 145   0.0000       2.934143        79.8421   46-A1
 146   0.0000       2.948348        80.2286   28-A2
 147   0.0000       2.966944        80.7346   45-B2
 148   0.0000       3.039302        82.7036   29-A2
 149   0.0000       3.068888        83.5087   47-A1
 150   0.0000       3.142786        85.5195   46-B2
 151   0.0000       3.349448        91.1431   47-B2

                    ********************************
                    * MULLIKEN POPULATION ANALYSIS *
                    ********************************

--------------------------------------------
MULLIKEN ATOMIC CHARGES AND SPIN POPULATIONS
--------------------------------------------
   0 H :   -0.004349    0.018621
   1 C :    0.031867   -0.023382
   2 H :   -0.004349    0.018621
   3 C :    0.031867   -0.023382
   4 H :    0.005648   -0.028531
   5 C :    0.013648    1.012986
   6 H :    0.005648   -0.028531
   7 C :    0.013648    1.012986
   8 H :   -0.015547    0.002514
   9 C :   -0.058785    0.022553
  10 H :   -0.015547    0.002514
  11 C :   -0.058785    0.022553
  12 H :   -0.004349    0.018621
  13 C :    0.031867   -0.023382
  14 H :   -0.004349    0.018621
  15 C :    0.031867   -0.023382
Sum of atomic charges         :    0.0000000
Sum of atomic spin populations:    2.0000000

-----------------------------------------------------
MULLIKEN REDUCED ORBITAL CHARGES AND SPIN POPULATIONS
-----------------------------------------------------
CHARGE
  0 H s       :     0.982923  s :     0.982923
      pz      :     0.003589  p :     0.021426
      px      :     0.012115
      py      :     0.005722
  1 C s       :     3.174908  s :     3.174908
      pz      :     0.939970  p :     2.749253
      px      :     0.887434
      py      :     0.921850
      dz2     :     0.007919  d :     0.043972
      dxz     :     0.010213
      dyz     :     0.006178
      dx2y2   :     0.011691
      dxy     :     0.007972
  2 H s       :     0.982923  s :     0.982923
      pz      :     0.003589  p :     0.021426
      px      :     0.012115
      py      :     0.005722
  3 C s       :     3.174908  s :     3.174908
      pz      :     0.939970  p :     2.749253
      px      :     0.887434
      py      :     0.921850
      dz2     :     0.007919  d :     0.043972
      dxz     :     0.010213
      dyz     :     0.006178
      dx2y2   :     0.011691
      dxy     :     0.007972
  4 H s       :     0.970981  s :     0.970981
      pz      :     0.014429  p :     0.023372
      px      :     0.003209
      py      :     0.005733
  5 C s       :     3.229760  s :     3.229760
      pz      :     0.871084  p :     2.722757
      px      :     0.925059
      py      :     0.926614
      dz2     :     0.012300  d :     0.033835
      dxz     :     0.008928
      dyz     :     0.003263
      dx2y2   :     0.004008
      dxy     :     0.005337
  6 H s       :     0.970981  s :     0.970981
      pz      :     0.014429  p :     0.023372
      px      :     0.003209
      py      :     0.005733
  7 C s       :     3.229760  s :     3.229760
      pz      :     0.871084  p :     2.722757
      px      :     0.925059
      py      :     0.926614
      dz2     :     0.012300  d :     0.033835
      dxz     :     0.008928
      dyz     :     0.003263
      dx2y2   :     0.004008
      dxy     :     0.005337
  8 H s       :     0.994031  s :     0.994031
      pz      :     0.009934  p :     0.021515
      px      :     0.003881
      py      :     0.007700
  9 C s       :     3.423936  s :     3.423936
      pz      :     0.834821  p :     2.590350
      px      :     0.927728
      py      :     0.827801
      dz2     :     0.007400  d :     0.044499
      dxz     :     0.010911
      dyz     :     0.009969
      dx2y2   :     0.009798
      dxy     :     0.006422
 10 H s       :     0.994031  s :     0.994031
      pz      :     0.009934  p :     0.021515
      px      :     0.003881
      py      :     0.007700
 11 C s       :     3.423936  s :     3.423936
      pz      :     0.834821  p :     2.590350
      px      :     0.927728
      py      :     0.827801
      dz2     :     0.007400  d :     0.044499
      dxz     :     0.010911
      dyz     :     0.009969
      dx2y2   :     0.009798
      dxy     :     0.006422
 12 H s       :     0.982923  s :     0.982923
      pz      :     0.003589  p :     0.021426
      px      :     0.012115
      py      :     0.005722
 13 C s       :     3.174908  s :     3.174908
      pz      :     0.939970  p :     2.749253
      px      :     0.887434
      py      :     0.921850
      dz2     :     0.007919  d :     0.043972
      dxz     :     0.010213
      dyz     :     0.006178
      dx2y2   :     0.011691
      dxy     :     0.007972
 14 H s       :     0.982923  s :     0.982923
      pz      :     0.003589  p :     0.021426
      px      :     0.012115
      py      :     0.005722
 15 C s       :     3.174908  s :     3.174908
      pz      :     0.939970  p :     2.749253
      px      :     0.887434
      py      :     0.921850
      dz2     :     0.007919  d :     0.043972
      dxz     :     0.010213
      dyz     :     0.006178
      dx2y2   :     0.011691
      dxy     :     0.007972

SPIN
  0 H s       :     0.018620  s :     0.018620
      pz      :     0.000007  p :     0.000001
      px      :    -0.000065
      py      :     0.000059
  1 C s       :    -0.021346  s :    -0.021346
      pz      :    -0.018289  p :    -0.007888
      px      :    -0.018562
      py      :     0.028963
      dz2     :     0.000839  d :     0.005852
      dxz     :     0.000128
      dyz     :     0.000317
      dx2y2   :     0.003029
      dxy     :     0.001540
  2 H s       :     0.018620  s :     0.018620
      pz      :     0.000007  p :     0.000001
      px      :    -0.000065
      py      :     0.000059
  3 C s       :    -0.021346  s :    -0.021346
      pz      :    -0.018289  p :    -0.007888
      px      :    -0.018562
      py      :     0.028963
      dz2     :     0.000839  d :     0.005852
      dxz     :     0.000128
      dyz     :     0.000317
      dx2y2   :     0.003029
      dxy     :     0.001540
  4 H s       :    -0.033620  s :    -0.033620
      pz      :     0.000284  p :     0.005089
      px      :    -0.000072
      py      :     0.004877
  5 C s       :     0.160070  s :     0.160070
      pz      :     0.111947  p :     0.854581
      px      :     0.026926
      py      :     0.715709
      dz2     :    -0.000445  d :    -0.001665
      dxz     :     0.000140
      dyz     :    -0.000114
      dx2y2   :    -0.000882
      dxy     :    -0.000365
  6 H s       :    -0.033620  s :    -0.033620
      pz      :     0.000284  p :     0.005089
      px      :    -0.000072
      py      :     0.004877
  7 C s       :     0.160070  s :     0.160070
      pz      :     0.111947  p :     0.854581
      px      :     0.026926
      py      :     0.715709
      dz2     :    -0.000445  d :    -0.001665
      dxz     :     0.000140
      dyz     :    -0.000114
      dx2y2   :    -0.000882
      dxy     :    -0.000365
  8 H s       :     0.002504  s :     0.002504
      pz      :    -0.000009  p :     0.000010
      px      :    -0.000016
      py      :     0.000034
  9 C s       :     0.008113  s :     0.008113
      pz      :     0.011272  p :     0.014292
      px      :    -0.000505
      py      :     0.003525
      dz2     :     0.000036  d :     0.000148
      dxz     :     0.000047
      dyz     :     0.000006
      dx2y2   :     0.000103
      dxy     :    -0.000044
 10 H s       :     0.002504  s :     0.002504
      pz      :    -0.000009  p :     0.000010
      px      :    -0.000016
      py      :     0.000034
 11 C s       :     0.008113  s :     0.008113
      pz      :     0.011272  p :     0.014292
      px      :    -0.000505
      py      :     0.003525
      dz2     :     0.000036  d :     0.000148
      dxz     :     0.000047
      dyz     :     0.000006
      dx2y2   :     0.000103
      dxy     :    -0.000044
 12 H s       :     0.018620  s :     0.018620
      pz      :     0.000007  p :     0.000001
      px      :    -0.000065
      py      :     0.000059
 13 C s       :    -0.021346  s :    -0.021346
      pz      :    -0.018289  p :    -0.007888
      px      :    -0.018562
      py      :     0.028963
      dz2     :     0.000839  d :     0.005852
      dxz     :     0.000128
      dyz     :     0.000317
      dx2y2   :     0.003029
      dxy     :     0.001540
 14 H s       :     0.018620  s :     0.018620
      pz      :     0.000007  p :     0.000001
      px      :    -0.000065
      py      :     0.000059
 15 C s       :    -0.021346  s :    -0.021346
      pz      :    -0.018289  p :    -0.007888
      px      :    -0.018562
      py      :     0.028963
      dz2     :     0.000839  d :     0.005852
      dxz     :     0.000128
      dyz     :     0.000317
      dx2y2   :     0.003029
      dxy     :     0.001540


                     *******************************
                     * LOEWDIN POPULATION ANALYSIS *
                     *******************************

-------------------------------------------
LOEWDIN ATOMIC CHARGES AND SPIN POPULATIONS
-------------------------------------------
   0 H :    0.011350    0.014791
   1 C :   -0.015484    0.045692
   2 H :    0.011350    0.014791
   3 C :   -0.015484    0.045692
   4 H :    0.001496    0.006315
   5 C :    0.000394    0.850525
   6 H :    0.001496    0.006315
   7 C :    0.000394    0.850525
   8 H :    0.008438    0.001700
   9 C :   -0.002062    0.020494
  10 H :    0.008438    0.001700
  11 C :   -0.002062    0.020494
  12 H :    0.011350    0.014791
  13 C :   -0.015484    0.045692
  14 H :    0.011350    0.014791
  15 C :   -0.015484    0.045692

----------------------------------------------------
LOEWDIN REDUCED ORBITAL CHARGES AND SPIN POPULATIONS
----------------------------------------------------
CHARGE
  0 H s       :     0.920196  s :     0.920196
      pz      :     0.013069  p :     0.068453
      px      :     0.036493
      py      :     0.018891
  1 C s       :     2.876429  s :     2.876429
      pz      :     1.019970  p :     3.035495
      px      :     1.022696
      py      :     0.992829
      dz2     :     0.017904  d :     0.103559
      dxz     :     0.026434
      dyz     :     0.011845
      dx2y2   :     0.028698
      dxy     :     0.018678
  2 H s       :     0.920196  s :     0.920196
      pz      :     0.013069  p :     0.068453
      px      :     0.036493
      py      :     0.018891
  3 C s       :     2.876429  s :     2.876429
      pz      :     1.019970  p :     3.035495
      px      :     1.022696
      py      :     0.992829
      dz2     :     0.017904  d :     0.103559
      dxz     :     0.026434
      dyz     :     0.011845
      dx2y2   :     0.028698
      dxy     :     0.018678
  4 H s       :     0.923677  s :     0.923677
      pz      :     0.044755  p :     0.074826
      px      :     0.011395
      py      :     0.018676
  5 C s       :     2.938284  s :     2.938284
      pz      :     0.999857  p :     2.980804
      px      :     1.025539
      py      :     0.955408
      dz2     :     0.027487  d :     0.080519
      dxz     :     0.025548
      dyz     :     0.007410
      dx2y2   :     0.007915
      dxy     :     0.012159
  6 H s       :     0.923677  s :     0.923677
      pz      :     0.044755  p :     0.074826
      px      :     0.011395
      py      :     0.018676
  7 C s       :     2.938284  s :     2.938284
      pz      :     0.999857  p :     2.980804
      px      :     1.025539
      py      :     0.955408
      dz2     :     0.027487  d :     0.080519
      dxz     :     0.025548
      dyz     :     0.007410
      dx2y2   :     0.007915
      dxy     :     0.012159
  8 H s       :     0.920755  s :     0.920755
      pz      :     0.031902  p :     0.070807
      px      :     0.013907
      py      :     0.024997
  9 C s       :     2.885679  s :     2.885679
      pz      :     1.005068  p :     3.015059
      px      :     0.999274
      py      :     1.010716
      dz2     :     0.015623  d :     0.101325
      dxz     :     0.027649
      dyz     :     0.022050
      dx2y2   :     0.025370
      dxy     :     0.010633
 10 H s       :     0.920755  s :     0.920755
      pz      :     0.031902  p :     0.070807
      px      :     0.013907
      py      :     0.024997
 11 C s       :     2.885679  s :     2.885679
      pz      :     1.005068  p :     3.015059
      px      :     0.999274
      py      :     1.010716
      dz2     :     0.015623  d :     0.101325
      dxz     :     0.027649
      dyz     :     0.022050
      dx2y2   :     0.025370
      dxy     :     0.010633
 12 H s       :     0.920196  s :     0.920196
      pz      :     0.013069  p :     0.068453
      px      :     0.036493
      py      :     0.018891
 13 C s       :     2.876429  s :     2.876429
      pz      :     1.019970  p :     3.035495
      px      :     1.022696
      py      :     0.992829
      dz2     :     0.017904  d :     0.103559
      dxz     :     0.026434
      dyz     :     0.011845
      dx2y2   :     0.028698
      dxy     :     0.018678
 14 H s       :     0.920196  s :     0.920196
      pz      :     0.013069  p :     0.068453
      px      :     0.036493
      py      :     0.018891
 15 C s       :     2.876429  s :     2.876429
      pz      :     1.019970  p :     3.035495
      px      :     1.022696
      py      :     0.992829
      dz2     :     0.017904  d :     0.103559
      dxz     :     0.026434
      dyz     :     0.011845
      dx2y2   :     0.028698
      dxy     :     0.018678

SPIN
  0 H s       :     0.014165  s :     0.014165
      pz      :    -0.000178  p :     0.000626
      px      :    -0.000368
      py      :     0.001172
  1 C s       :     0.008062  s :     0.008062
      pz      :    -0.008686  p :     0.022264
      px      :    -0.003127
      py      :     0.034077
      dz2     :     0.002261  d :     0.015366
      dxz     :     0.000766
      dyz     :     0.000982
      dx2y2   :     0.007295
      dxy     :     0.004063
  2 H s       :     0.014165  s :     0.014165
      pz      :    -0.000178  p :     0.000626
      px      :    -0.000368
      py      :     0.001172
  3 C s       :     0.008062  s :     0.008062
      pz      :    -0.008686  p :     0.022264
      px      :    -0.003127
      py      :     0.034077
      dz2     :     0.002261  d :     0.015366
      dxz     :     0.000766
      dyz     :     0.000982
      dx2y2   :     0.007295
      dxy     :     0.004063
  4 H s       :    -0.014356  s :    -0.014356
      pz      :     0.003925  p :     0.020671
      px      :     0.000304
      py      :     0.016441
  5 C s       :     0.049052  s :     0.049052
      pz      :     0.087804  p :     0.802488
      px      :     0.018568
      py      :     0.696116
      dz2     :     0.000093  d :    -0.001016
      dxz     :    -0.000515
      dyz     :     0.000695
      dx2y2   :    -0.000686
      dxy     :    -0.000602
  6 H s       :    -0.014356  s :    -0.014356
      pz      :     0.003925  p :     0.020671
      px      :     0.000304
      py      :     0.016441
  7 C s       :     0.049052  s :     0.049052
      pz      :     0.087804  p :     0.802488
      px      :     0.018568
      py      :     0.696116
      dz2     :     0.000093  d :    -0.001016
      dxz     :    -0.000515
      dyz     :     0.000695
      dx2y2   :    -0.000686
      dxy     :    -0.000602
  8 H s       :     0.001282  s :     0.001282
      pz      :     0.000352  p :     0.000418
      px      :    -0.000044
      py      :     0.000109
  9 C s       :     0.008916  s :     0.008916
      pz      :     0.008450  p :     0.010509
      px      :    -0.000425
      py      :     0.002484
      dz2     :     0.000324  d :     0.001068
      dxz     :     0.000022
      dyz     :     0.000218
      dx2y2   :     0.000586
      dxy     :    -0.000083
 10 H s       :     0.001282  s :     0.001282
      pz      :     0.000352  p :     0.000418
      px      :    -0.000044
      py      :     0.000109
 11 C s       :     0.008916  s :     0.008916
      pz      :     0.008450  p :     0.010509
      px      :    -0.000425
      py      :     0.002484
      dz2     :     0.000324  d :     0.001068
      dxz     :     0.000022
      dyz     :     0.000218
      dx2y2   :     0.000586
      dxy     :    -0.000083
 12 H s       :     0.014165  s :     0.014165
      pz      :    -0.000178  p :     0.000626
      px      :    -0.000368
      py      :     0.001172
 13 C s       :     0.008062  s :     0.008062
      pz      :    -0.008686  p :     0.022264
      px      :    -0.003127
      py      :     0.034077
      dz2     :     0.002261  d :     0.015366
      dxz     :     0.000766
      dyz     :     0.000982
      dx2y2   :     0.007295
      dxy     :     0.004063
 14 H s       :     0.014165  s :     0.014165
      pz      :    -0.000178  p :     0.000626
      px      :    -0.000368
      py      :     0.001172
 15 C s       :     0.008062  s :     0.008062
      pz      :    -0.008686  p :     0.022264
      px      :    -0.003127
      py      :     0.034077
      dz2     :     0.002261  d :     0.015366
      dxz     :     0.000766
      dyz     :     0.000982
      dx2y2   :     0.007295
      dxy     :     0.004063


                      *****************************
                      * MAYER POPULATION ANALYSIS *
                      *****************************

  NA   - Mulliken gross atomic population
  ZA   - Total nuclear charge
  QA   - Mulliken gross atomic charge
  VA   - Mayer's total valence
  BVA  - Mayer's bonded valence
  FA   - Mayer's free valence

  ATOM       NA         ZA         QA         VA         BVA        FA
  0 H      1.0043     1.0000    -0.0043     0.9775     0.9771     0.0004
  1 C      5.9681     6.0000     0.0319     3.7903     3.7854     0.0049
  2 H      1.0043     1.0000    -0.0043     0.9775     0.9771     0.0004
  3 C      5.9681     6.0000     0.0319     3.7903     3.7854     0.0049
  4 H      0.9944     1.0000     0.0056     0.9871     0.9855     0.0016
  5 C      5.9864     6.0000     0.0136     3.7753     3.0318     0.7436
  6 H      0.9944     1.0000     0.0056     0.9871     0.9855     0.0016
  7 C      5.9864     6.0000     0.0136     3.7753     3.0318     0.7436
  8 H      1.0155     1.0000    -0.0155     0.9829     0.9829     0.0000
  9 C      6.0588     6.0000    -0.0588     3.7364     3.7361     0.0003
 10 H      1.0155     1.0000    -0.0155     0.9829     0.9829     0.0000
 11 C      6.0588     6.0000    -0.0588     3.7364     3.7361     0.0003
 12 H      1.0043     1.0000    -0.0043     0.9775     0.9771     0.0004
 13 C      5.9681     6.0000     0.0319     3.7903     3.7854     0.0049
 14 H      1.0043     1.0000    -0.0043     0.9775     0.9771     0.0004
 15 C      5.9681     6.0000     0.0319     3.7903     3.7854     0.0049

  Mayer bond orders larger than 0.1
B(  0-H ,  1-C ) :   0.9632 B(  1-C ,  3-C ) :   0.9549 B(  1-C ,  5-C ) :   0.9777 
B(  1-C ,  9-C ) :   0.9514 B(  2-H ,  3-C ) :   0.9632 B(  3-C ,  7-C ) :   0.9777 
B(  3-C , 11-C ) :   0.9514 B(  4-H ,  5-C ) :   0.9498 B(  5-C , 13-C ) :   0.9777 
B(  6-H ,  7-C ) :   0.9498 B(  7-C , 15-C ) :   0.9777 B(  8-H ,  9-C ) :   1.0462 
B(  9-C , 11-C ) :   0.9073 B(  9-C , 13-C ) :   0.9514 B( 10-H , 11-C ) :   1.0462 
B( 11-C , 15-C ) :   0.9514 B( 12-H , 13-C ) :   0.9632 B( 13-C , 15-C ) :   0.9549 
B( 14-H , 15-C ) :   0.9632 

-------
TIMINGS
-------

Total SCF time: 0 days 0 hours 1 min 0 sec 

Total time                  ....      60.955 sec
Sum of individual times     ....      62.112 sec  (101.9%)

Fock matrix formation       ....      59.532 sec  ( 97.7%)
  Coulomb formation         ....      51.446 sec  ( 86.4% of F)
  XC integration            ....       8.067 sec  ( 13.6% of F)
    Basis function eval.    ....       3.199 sec  ( 39.7% of XC)
    Density eval.           ....       1.358 sec  ( 16.8% of XC)
    XC-Functional eval.     ....       0.301 sec  (  3.7% of XC)
    XC-Potential eval.      ....       3.135 sec  ( 38.9% of XC)
Diagonalization             ....       0.041 sec  (  0.1%)
Density matrix formation    ....       0.007 sec  (  0.0%)
Population analysis         ....       0.035 sec  (  0.1%)
Initial guess               ....       0.884 sec  (  1.5%)
Orbital Transformation      ....       0.000 sec  (  0.0%)
Orbital Orthonormalization  ....       0.000 sec  (  0.0%)
DIIS solution               ....       0.025 sec  (  0.0%)
Grid generation             ....       1.588 sec  (  2.6%)

-------------------------   --------------------
FINAL SINGLE POINT ENERGY      -308.970670678867
-------------------------   --------------------

------------------------------------------------------------------------------
                         ORCA SCF GRADIENT CALCULATION
------------------------------------------------------------------------------

Gradient of the Kohn-Sham DFT energy:
Kohn-Sham wavefunction type      ... UKS
Hartree-Fock exchange scaling    ...    0.200
Number of operators              ...    2
Number of atoms                  ...   16
Basis set dimensions             ...  152
Integral neglect threshold       ... 2.5e-11
Integral primitive cutoff        ... 2.5e-12

Nuclear repulsion gradient       ... done
One Electron Gradient            ... done
Pre-screening matrix             ... done
Starting the two electron gradient:
Two electron gradient done
Exchange-correlation gradient    ... done

------------------
CARTESIAN GRADIENT
------------------

   1   H   :    0.000518608    0.000088004   -0.000013202
   2   C   :    0.003480458   -0.003426966    0.000879148
   3   H   :    0.000518615   -0.000088007   -0.000013201
   4   C   :    0.003480461    0.003426969    0.000879145
   5   H   :    0.000000001   -0.001162758    0.000827979
   6   C   :   -0.000000000    0.004321242    0.002784800
   7   H   :   -0.000000002    0.001162757    0.000827983
   8   C   :   -0.000000000   -0.004321246    0.002784805
   9   H   :   -0.000000001    0.000906924   -0.000739270
  10   C   :   -0.000000000    0.003360720   -0.004605407
  11   H   :   -0.000000000   -0.000906926   -0.000739274
  12   C   :   -0.000000001   -0.003360711   -0.004605399
  13   H   :   -0.000518609    0.000088004   -0.000013201
  14   C   :   -0.003480459   -0.003426967    0.000879149
  15   H   :   -0.000518611   -0.000088004   -0.000013201
  16   C   :   -0.003480460    0.003426966    0.000879146

Norm of the cartesian gradient     ...    0.014976914
RMS gradient                       ...    0.002161731
MAX gradient                       ...    0.004605407

-------
TIMINGS
-------

Total SCF gradient time            ...       20.131 sec

One electron gradient       ....       0.133 sec  (  0.7%)
Prescreening matrices       ....       0.099 sec  (  0.5%)
Two electron gradient       ....      12.845 sec  ( 63.8%)
XC gradient                 ....       6.985 sec  ( 34.7%)
------------------------------------------------------------------------------
                         ORCA GEOMETRY RELAXATION STEP
------------------------------------------------------------------------------

Reading the OPT-File                    .... done
Getting information on internals        .... done
Copying old internal coords+grads       .... done
Making the new internal coordinates     .... (new redundants).... done
Validating the new internal coordinates .... (new redundants).... done
Calculating the B-matrix                .... done
Calculating the G,G- and P matrices     .... done
[...]
  7 C s       :     3.264570  s :     3.264570
      pz      :     0.855303  p :     2.707922
      px      :     0.928130
      py      :     0.924489
      dz2     :     0.011868  d :     0.034063
      dxz     :     0.009112
      dyz     :     0.003645
      dx2y2   :     0.004133
      dxy     :     0.005306
  8 H s       :     0.995459  s :     0.995459
      pz      :     0.010022  p :     0.021563
      px      :     0.003885
      py      :     0.007656
  9 C s       :     3.415148  s :     3.415148
      pz      :     0.840159  p :     2.600128
      px      :     0.928582
      py      :     0.831387
      dz2     :     0.007561  d :     0.045382
      dxz     :     0.011051
      dyz     :     0.010197
      dx2y2   :     0.009943
      dxy     :     0.006631
 10 H s       :     0.995458  s :     0.995458
      pz      :     0.010022  p :     0.021563
      px      :     0.003885
      py      :     0.007656
 11 C s       :     3.415144  s :     3.415144
      pz      :     0.840170  p :     2.600129
      px      :     0.928581
      py      :     0.831378
      dz2     :     0.007561  d :     0.045383
      dxz     :     0.011051
      dyz     :     0.010197
      dx2y2   :     0.009943
      dxy     :     0.006631
 12 H s       :     0.984764  s :     0.984764
      pz      :     0.003612  p :     0.021493
      px      :     0.012131
      py      :     0.005750
 13 C s       :     3.169348  s :     3.169348
      pz      :     0.939949  p :     2.738484
      px      :     0.873872
      py      :     0.924663
      dz2     :     0.007992  d :     0.044255
      dxz     :     0.010377
      dyz     :     0.006122
      dx2y2   :     0.011692
      dxy     :     0.008072
 14 H s       :     0.984763  s :     0.984763
      pz      :     0.003612  p :     0.021493
      px      :     0.012131
      py      :     0.005750
 15 C s       :     3.169270  s :     3.169270
      pz      :     0.939936  p :     2.738465
      px      :     0.873858
      py      :     0.924671
      dz2     :     0.007992  d :     0.044254
      dxz     :     0.010376
      dyz     :     0.006121
      dx2y2   :     0.011692
      dxy     :     0.008072

SPIN
  0 H s       :     0.018322  s :     0.018322
      pz      :     0.000011  p :     0.000006
      px      :    -0.000071
      py      :     0.000066
  1 C s       :    -0.023140  s :    -0.023140
      pz      :    -0.019037  p :    -0.008501
      px      :    -0.020228
      py      :     0.030765
      dz2     :     0.000997  d :     0.006080
      dxz     :     0.000098
      dyz     :     0.000318
      dx2y2   :     0.002991
      dxy     :     0.001676
  2 H s       :     0.018322  s :     0.018322
      pz      :     0.000011  p :     0.000006
      px      :    -0.000071
      py      :     0.000066
  3 C s       :    -0.023140  s :    -0.023140
      pz      :    -0.019038  p :    -0.008501
      px      :    -0.020228
      py      :     0.030765
      dz2     :     0.000997  d :     0.006080
      dxz     :     0.000098
      dyz     :     0.000318
      dx2y2   :     0.002991
      dxy     :     0.001676
  4 H s       :    -0.036884  s :    -0.036884
      pz      :     0.000496  p :     0.005372
      px      :    -0.000073
      py      :     0.004949
  5 C s       :     0.158806  s :     0.158806
      pz      :     0.148664  p :     0.859077
      px      :     0.025862
      py      :     0.684551
      dz2     :    -0.000301  d :    -0.001528
      dxz     :     0.000154
      dyz     :    -0.000281
      dx2y2   :    -0.000820
      dxy     :    -0.000280
  6 H s       :    -0.036885  s :    -0.036885
      pz      :     0.000496  p :     0.005372
      px      :    -0.000073
      py      :     0.004948
  7 C s       :     0.158807  s :     0.158807
      pz      :     0.148667  p :     0.859078
      px      :     0.025862
      py      :     0.684549
      dz2     :    -0.000301  d :    -0.001528
      dxz     :     0.000154
      dyz     :    -0.000281
      dx2y2   :    -0.000820
      dxy     :    -0.000280
  8 H s       :     0.002666  s :     0.002666
      pz      :     0.000000  p :     0.000021
      px      :    -0.000018
      py      :     0.000038
  9 C s       :     0.009783  s :     0.009783
      pz      :     0.013347  p :     0.016931
      px      :    -0.000312
      py      :     0.003897
      dz2     :     0.000041  d :     0.000219
      dxz     :     0.000069
      dyz     :    -0.000033
      dx2y2   :     0.000188
      dxy     :    -0.000045
 10 H s       :     0.002666  s :     0.002666
      pz      :     0.000000  p :     0.000021
      px      :    -0.000018
      py      :     0.000038
 11 C s       :     0.009783  s :     0.009783
      pz      :     0.013347  p :     0.016931
      px      :    -0.000312
      py      :     0.003897
      dz2     :     0.000041  d :     0.000219
      dxz     :     0.000069
      dyz     :    -0.000033
      dx2y2   :     0.000188
      dxy     :    -0.000045
 12 H s       :     0.018322  s :     0.018322
      pz      :     0.000011  p :     0.000006
      px      :    -0.000071
      py      :     0.000066
 13 C s       :    -0.023139  s :    -0.023139
      pz      :    -0.019038  p :    -0.008500
      px      :    -0.020228
      py      :     0.030766
      dz2     :     0.000997  d :     0.006080
      dxz     :     0.000098
      dyz     :     0.000318
      dx2y2   :     0.002991
      dxy     :     0.001676
 14 H s       :     0.018322  s :     0.018322
      pz      :     0.000011  p :     0.000006
      px      :    -0.000071
      py      :     0.000066
 15 C s       :    -0.023141  s :    -0.023141
      pz      :    -0.019037  p :    -0.008501
      px      :    -0.020229
      py      :     0.030765
      dz2     :     0.000997  d :     0.006080
      dxz     :     0.000098
      dyz     :     0.000318
      dx2y2   :     0.002991
      dxy     :     0.001676


                     *******************************
                     * LOEWDIN POPULATION ANALYSIS *
                     *******************************

-------------------------------------------
LOEWDIN ATOMIC CHARGES AND SPIN POPULATIONS
-------------------------------------------
   0 H :    0.010842    0.014724
   1 C :   -0.014276    0.047044
   2 H :    0.010842    0.014724
   3 C :   -0.014276    0.047044
   4 H :    0.001708    0.004949
   5 C :   -0.000600    0.844829
   6 H :    0.001708    0.004949
   7 C :   -0.000600    0.844829
   8 H :    0.007911    0.001711
   9 C :   -0.002152    0.024974
  10 H :    0.007911    0.001711
  11 C :   -0.002152    0.024974
  12 H :    0.010842    0.014724
  13 C :   -0.014276    0.047044
  14 H :    0.010842    0.014724
  15 C :   -0.014276    0.047044

----------------------------------------------------
LOEWDIN REDUCED ORBITAL CHARGES AND SPIN POPULATIONS
----------------------------------------------------
CHARGE
  0 H s       :     0.920516  s :     0.920516
      pz      :     0.013112  p :     0.068642
      px      :     0.036466
      py      :     0.019064
  1 C s       :     2.874762  s :     2.874762
      pz      :     1.020841  p :     3.035083
      px      :     1.022521
      py      :     0.991722
      dz2     :     0.018160  d :     0.104430
      dxz     :     0.026902
      dyz     :     0.011709
      dx2y2   :     0.028724
      dxy     :     0.018934
  2 H s       :     0.920516  s :     0.920516
      pz      :     0.013112  p :     0.068642
      px      :     0.036466
      py      :     0.019064
  3 C s       :     2.874762  s :     2.874762
      pz      :     1.020841  p :     3.035083
      px      :     1.022521
      py      :     0.991722
      dz2     :     0.018160  d :     0.104430
      dxz     :     0.026902
      dyz     :     0.011709
      dx2y2   :     0.028724
      dxy     :     0.018934
  4 H s       :     0.922622  s :     0.922622
      pz      :     0.043968  p :     0.075671
      px      :     0.011469
      py      :     0.020233
  5 C s       :     2.930125  s :     2.930125
      pz      :     0.996486  p :     2.988985
      px      :     1.027132
      py      :     0.965366
      dz2     :     0.026222  d :     0.081490
      dxz     :     0.026094
      dyz     :     0.008406
      dx2y2   :     0.008401
      dxy     :     0.012367
  6 H s       :     0.922622  s :     0.922622
      pz      :     0.043968  p :     0.075671
      px      :     0.011469
      py      :     0.020233
  7 C s       :     2.930125  s :     2.930125
      pz      :     0.996486  p :     2.988985
      px      :     1.027132
      py      :     0.965366
      dz2     :     0.026222  d :     0.081490
      dxz     :     0.026094
      dyz     :     0.008406
      dx2y2   :     0.008401
      dxy     :     0.012367
  8 H s       :     0.921086  s :     0.921086
      pz      :     0.032096  p :     0.071003
      px      :     0.014008
      py      :     0.024900
  9 C s       :     2.880573  s :     2.880573
      pz      :     1.004977  p :     3.017755
      px      :     1.000017
      py      :     1.012761
      dz2     :     0.016054  d :     0.103824
      dxz     :     0.028102
      dyz     :     0.022641
      dx2y2   :     0.025924
      dxy     :     0.011103
 10 H s       :     0.921086  s :     0.921086
      pz      :     0.032096  p :     0.071003
      px      :     0.014008
      py      :     0.024900
 11 C s       :     2.880573  s :     2.880573
      pz      :     1.004977  p :     3.017755
      px      :     1.000017
      py      :     1.012761
      dz2     :     0.016054  d :     0.103824
      dxz     :     0.028102
      dyz     :     0.022641
      dx2y2   :     0.025924
      dxy     :     0.011103
 12 H s       :     0.920516  s :     0.920516
      pz      :     0.013112  p :     0.068642
      px      :     0.036466
      py      :     0.019064
 13 C s       :     2.874762  s :     2.874762
      pz      :     1.020841  p :     3.035083
      px      :     1.022521
      py      :     0.991722
      dz2     :     0.018160  d :     0.104430
      dxz     :     0.026902
      dyz     :     0.011709
      dx2y2   :     0.028724
      dxy     :     0.018934
 14 H s       :     0.920516  s :     0.920516
      pz      :     0.013112  p :     0.068642
      px      :     0.036466
      py      :     0.019064
 15 C s       :     2.874762  s :     2.874762
      pz      :     1.020841  p :     3.035083
      px      :     1.022521
      py      :     0.991722
      dz2     :     0.018160  d :     0.104430
      dxz     :     0.026902
      dyz     :     0.011709
      dx2y2   :     0.028724
      dxy     :     0.018934

SPIN
  0 H s       :     0.013995  s :     0.013995
      pz      :    -0.000145  p :     0.000729
      px      :    -0.000358
      py      :     0.001232
  1 C s       :     0.008387  s :     0.008387
      pz      :    -0.008892  p :     0.022560
      px      :    -0.003293
      py      :     0.034745
      dz2     :     0.002667  d :     0.016097
      dxz     :     0.000751
      dyz     :     0.000981
      dx2y2   :     0.007296
      dxy     :     0.004401
  2 H s       :     0.013995  s :     0.013995
      pz      :    -0.000145  p :     0.000729
      px      :    -0.000358
      py      :     0.001232
  3 C s       :     0.008387  s :     0.008387
      pz      :    -0.008892  p :     0.022560
      px      :    -0.003293
      py      :     0.034745
      dz2     :     0.002667  d :     0.016097
      dxz     :     0.000751
      dyz     :     0.000981
      dx2y2   :     0.007296
      dxy     :     0.004401
  4 H s       :    -0.016626  s :    -0.016626
      pz      :     0.004895  p :     0.021576
      px      :     0.000297
      py      :     0.016383
  5 C s       :     0.041704  s :     0.041704
      pz      :     0.120279  p :     0.804129
      px      :     0.018022
      py      :     0.665828
      dz2     :     0.000150  d :    -0.001005
      dxz     :    -0.000510
      dyz     :     0.000639
      dx2y2   :    -0.000759
      dxy     :    -0.000524
  6 H s       :    -0.016626  s :    -0.016626
      pz      :     0.004895  p :     0.021576
      px      :     0.000297
      py      :     0.016383
  7 C s       :     0.041704  s :     0.041704
      pz      :     0.120279  p :     0.804129
      px      :     0.018022
      py      :     0.665828
      dz2     :     0.000150  d :    -0.001005
      dxz     :    -0.000510
      dyz     :     0.000639
      dx2y2   :    -0.000759
      dxy     :    -0.000524
  8 H s       :     0.001187  s :     0.001187
      pz      :     0.000450  p :     0.000524
      px      :    -0.000047
      py      :     0.000121
  9 C s       :     0.010792  s :     0.010792
      pz      :     0.010196  p :     0.012879
      px      :    -0.000234
      py      :     0.002917
      dz2     :     0.000365  d :     0.001302
      dxz     :     0.000041
      dyz     :     0.000114
      dx2y2   :     0.000869
      dxy     :    -0.000086
 10 H s       :     0.001187  s :     0.001187
      pz      :     0.000450  p :     0.000524
      px      :    -0.000047
      py      :     0.000121
 11 C s       :     0.010792  s :     0.010792
      pz      :     0.010196  p :     0.012879
      px      :    -0.000234
      py      :     0.002917
      dz2     :     0.000365  d :     0.001302
      dxz     :     0.000041
      dyz     :     0.000114
      dx2y2   :     0.000869
      dxy     :    -0.000086
 12 H s       :     0.013995  s :     0.013995
      pz      :    -0.000145  p :     0.000729
      px      :    -0.000358
      py      :     0.001232
 13 C s       :     0.008387  s :     0.008387
      pz      :    -0.008892  p :     0.022560
      px      :    -0.003293
      py      :     0.034745
      dz2     :     0.002667  d :     0.016097
      dxz     :     0.000751
      dyz     :     0.000981
      dx2y2   :     0.007296
      dxy     :     0.004401
 14 H s       :     0.013995  s :     0.013995
      pz      :    -0.000145  p :     0.000729
      px      :    -0.000358
      py      :     0.001232
 15 C s       :     0.008387  s :     0.008387
      pz      :    -0.008892  p :     0.022560
      px      :    -0.003293
      py      :     0.034745
      dz2     :     0.002667  d :     0.016097
      dxz     :     0.000751
      dyz     :     0.000981
      dx2y2   :     0.007296
      dxy     :     0.004401


                      *****************************
                      * MAYER POPULATION ANALYSIS *
                      *****************************

  NA   - Mulliken gross atomic population
  ZA   - Total nuclear charge
  QA   - Mulliken gross atomic charge
  VA   - Mayer's total valence
  BVA  - Mayer's bonded valence
  FA   - Mayer's free valence

  ATOM       NA         ZA         QA         VA         BVA        FA
  0 H      1.0063     1.0000    -0.0063     0.9773     0.9770     0.0003
  1 C      5.9520     6.0000     0.0480     3.7708     3.7655     0.0053
  2 H      1.0063     1.0000    -0.0063     0.9773     0.9770     0.0003
  3 C      5.9521     6.0000     0.0479     3.7709     3.7656     0.0053
  4 H      0.9992     1.0000     0.0008     0.9879     0.9862     0.0017
  5 C      6.0066     6.0000    -0.0066     3.7530     3.0180     0.7350
  6 H      0.9992     1.0000     0.0008     0.9879     0.9862     0.0017
  7 C      6.0066     6.0000    -0.0066     3.7530     3.0180     0.7350
  8 H      1.0170     1.0000    -0.0170     0.9824     0.9824     0.0000
  9 C      6.0607     6.0000    -0.0607     3.7341     3.7337     0.0004
 10 H      1.0170     1.0000    -0.0170     0.9824     0.9824     0.0000
 11 C      6.0607     6.0000    -0.0607     3.7341     3.7337     0.0004
 12 H      1.0063     1.0000    -0.0063     0.9773     0.9770     0.0003
 13 C      5.9521     6.0000     0.0479     3.7709     3.7656     0.0053
 14 H      1.0063     1.0000    -0.0063     0.9773     0.9770     0.0003
 15 C      5.9520     6.0000     0.0480     3.7708     3.7655     0.0053

  Mayer bond orders larger than 0.1
B(  0-H ,  1-C ) :   0.9677 B(  1-C ,  3-C ) :   0.9566 B(  1-C ,  5-C ) :   0.9600 
B(  1-C ,  9-C ) :   0.9492 B(  2-H ,  3-C ) :   0.9677 B(  3-C ,  7-C ) :   0.9600 
B(  3-C , 11-C ) :   0.9491 B(  4-H ,  5-C ) :   0.9684 B(  5-C , 13-C ) :   0.9600 
B(  6-H ,  7-C ) :   0.9684 B(  7-C , 15-C ) :   0.9600 B(  8-H ,  9-C ) :   1.0443 
B(  9-C , 11-C ) :   0.9059 B(  9-C , 13-C ) :   0.9491 B( 10-H , 11-C ) :   1.0443 
B( 11-C , 15-C ) :   0.9492 B( 12-H , 13-C ) :   0.9677 B( 13-C , 15-C ) :   0.9566 
B( 14-H , 15-C ) :   0.9677 

-------
TIMINGS
-------

Total SCF time: 0 days 0 hours 0 min 40 sec 

Total time                  ....      40.881 sec
Sum of individual times     ....      40.889 sec  (100.0%)

Fock matrix formation       ....      38.545 sec  ( 94.3%)
  Coulomb formation         ....      32.311 sec  ( 83.8% of F)
  XC integration            ....       6.229 sec  ( 16.2% of F)
    Basis function eval.    ....       1.934 sec  ( 31.1% of XC)
    Density eval.           ....       1.272 sec  ( 20.4% of XC)
    XC-Functional eval.     ....       0.263 sec  (  4.2% of XC)
    XC-Potential eval.      ....       2.699 sec  ( 43.3% of XC)
Diagonalization             ....       0.028 sec  (  0.1%)
Density matrix formation    ....       0.006 sec  (  0.0%)
Population analysis         ....       0.026 sec  (  0.1%)
Initial guess               ....       0.029 sec  (  0.1%)
Orbital Transformation      ....       0.000 sec  (  0.0%)
Orbital Orthonormalization  ....       0.028 sec  (  0.1%)
DIIS solution               ....       0.014 sec  (  0.0%)
Grid generation             ....       2.241 sec  (  5.5%)

-------------------------   --------------------
FINAL SINGLE POINT ENERGY      -308.971175061630
-------------------------   --------------------

                                *** OPTIMIZATION RUN DONE ***

                            ***************************************
                            *     ORCA property calculations      *
                            ***************************************

                                    ---------------------
                                    Active property flags
                                    ---------------------
   (+) Dipole Moment


------------------------------------------------------------------------------
                       ORCA ELECTRIC PROPERTIES CALCULATION
------------------------------------------------------------------------------

Dipole Moment Calculation                       ... on
Quadrupole Moment Calculation                   ... off
Polarizability Calculation                      ... off
GBWName                                         ... /home/vladimir/git/private/ORCA/C8H8/T-cubane-1/optimize/DFT/B3LYP/SVP/./cubane.gbw
Electron density file                           ... /home/vladimir/git/private/ORCA/C8H8/T-cubane-1/optimize/DFT/B3LYP/SVP/./cubane.scfp.tmp

-------------
DIPOLE MOMENT
-------------
                                X             Y             Z
Electronic contribution:     -0.00000      -0.00001      -0.12680
Nuclear contribution   :      0.00000       0.00001       0.06988
                        -----------------------------------------
Total Dipole Moment    :      0.00000       0.00000      -0.05692
                        -----------------------------------------
Magnitude (a.u.)       :      0.05692
Magnitude (Debye)      :      0.14468


Timings for individual modules:

Sum of individual times         ...      548.012 sec (=   9.134 min)
GTO integral calculation        ...        1.460 sec (=   0.024 min)   0.3 %
SCF iterations                  ...      387.875 sec (=   6.465 min)  70.8 %
SCF Gradient evaluation         ...      158.250 sec (=   2.638 min)  28.9 %
Geometry relaxation             ...        0.427 sec (=   0.007 min)   0.1 %
                             ****ORCA TERMINATED NORMALLY****
TOTAL RUN TIME: 0 days 0 hours 9 minutes 8 seconds 825 msec
