 argument  1 = cubane.nw
                                         
                                         


              Northwest Computational Chemistry Package (NWChem) 6.6
              ------------------------------------------------------


                    Environmental Molecular Sciences Laboratory
                       Pacific Northwest National Laboratory
                                Richland, WA 99352

                              Copyright (c) 1994-2015
                       Pacific Northwest National Laboratory
                            Battelle Memorial Institute

             NWChem is an open-source computational chemistry package
                        distributed under the terms of the
                      Educational Community License (ECL) 2.0
             A copy of the license is included with this distribution
                              in the LICENSE.TXT file

                                  ACKNOWLEDGMENT
                                  --------------

            This software and its documentation were developed at the
            EMSL at Pacific Northwest National Laboratory, a multiprogram
            national laboratory, operated for the U.S. Department of Energy
            by Battelle under Contract Number DE-AC05-76RL01830. Support
            for this work was provided by the Department of Energy Office
            of Biological and Environmental Research, Office of Basic
            Energy Sciences, and the Office of Advanced Scientific Computing.


           Job information
           ---------------

    hostname        = vladimir-Bars
    program         = nwchem
    date            = Sun May  8 12:34:32 2016

    compiled        = Вс._мая_08_12:23:38_2016
    source          = /home/vladimir/bin/nwchem-6.6
    nwchem branch   = 6.6
    nwchem revision = 27746
    ga revision     = 10594
    input           = cubane.nw
    prefix          = cubane.
    data base       = ./cubane.db
    status          = startup
    nproc           =        1
    time left       =     -1s



           Memory information
           ------------------

    heap     =   26214394 doubles =    200.0 Mbytes
    stack    =   26214399 doubles =    200.0 Mbytes
    global   =  262144000 doubles =   2000.0 Mbytes (distinct from heap & stack)
    total    =  314572793 doubles =   2400.0 Mbytes
    verify   = yes
    hardfail = no 


           Directory information
           ---------------------

  0 permanent = .
  0 scratch   = .




                                NWChem Input Module
                                -------------------


                            cubane CCSD/cc-pVDZ hessian
                            ---------------------------

 Scaling coordinates for geometry "geometry" by  1.889725989
 (inverse scale =  0.529177249)

 Turning off AUTOSYM since
 SYMMETRY directive was detected!


          ------
          auto-z
          ------


                             Geometry "geometry" -> ""
                             -------------------------

 Output coordinates in angstroms (scale by  1.889725989 to convert to a.u.)

  No.       Tag          Charge          X              Y              Z
 ---- ---------------- ---------- -------------- -------------- --------------
    1 H                    1.0000     1.42503470     1.42503470     1.42503472
    2 H                    1.0000    -1.42503470    -1.42503470     1.42503472
    3 H                    1.0000    -1.42503470     1.42503470    -1.42503472
    4 H                    1.0000     1.42503470    -1.42503470    -1.42503472
    5 H                    1.0000    -1.42503470    -1.42503470    -1.42503472
    6 H                    1.0000     1.42503470     1.42503470    -1.42503472
    7 H                    1.0000     1.42503470    -1.42503470     1.42503472
    8 H                    1.0000    -1.42503470     1.42503470     1.42503472
    9 C                    6.0000     0.78961438     0.78961438     0.78961439
   10 C                    6.0000    -0.78961438    -0.78961438     0.78961439
   11 C                    6.0000    -0.78961438     0.78961438    -0.78961439
   12 C                    6.0000     0.78961438    -0.78961438    -0.78961439
   13 C                    6.0000    -0.78961438    -0.78961438    -0.78961439
   14 C                    6.0000     0.78961438     0.78961438    -0.78961439
   15 C                    6.0000     0.78961438    -0.78961438     0.78961439
   16 C                    6.0000    -0.78961438     0.78961438     0.78961439

      Atomic Mass 
      ----------- 

      H                  1.007825
      C                 12.000000


 Effective nuclear repulsion energy (a.u.)     364.6352246725

            Nuclear Dipole moment (a.u.) 
            ----------------------------
        X                 Y               Z
 ---------------- ---------------- ----------------
     0.0000000000     0.0000000000     0.0000000000

      Symmetry information
      --------------------

 Group name             D2h       
 Group number             26
 Group order               8
 No. of unique centers     2

      Symmetry unique atoms

     1    9



                                Z-matrix (autoz)
                                -------- 

 Units are Angstrom for bonds and degrees for angles

      Type          Name      I     J     K     L     M      Value
      ----------- --------  ----- ----- ----- ----- ----- ----------
    1 Stretch                  1     9                       1.10058
    2 Stretch                  2    10                       1.10058
    3 Stretch                  3    11                       1.10058
    4 Stretch                  4    12                       1.10058
    5 Stretch                  5    13                       1.10058
    6 Stretch                  6    14                       1.10058
    7 Stretch                  7    15                       1.10058
    8 Stretch                  8    16                       1.10058
    9 Stretch                  9    14                       1.57923
   10 Stretch                  9    15                       1.57923
   11 Stretch                  9    16                       1.57923
   12 Stretch                 10    13                       1.57923
   13 Stretch                 10    15                       1.57923
   14 Stretch                 10    16                       1.57923
   15 Stretch                 11    13                       1.57923
   16 Stretch                 11    14                       1.57923
   17 Stretch                 11    16                       1.57923
   18 Stretch                 12    13                       1.57923
   19 Stretch                 12    14                       1.57923
   20 Stretch                 12    15                       1.57923
   21 Bend                     1     9    14               125.26439
   22 Bend                     1     9    15               125.26439
   23 Bend                     1     9    16               125.26439
   24 Bend                     2    10    13               125.26439
   25 Bend                     2    10    15               125.26439
   26 Bend                     2    10    16               125.26439
   27 Bend                     3    11    13               125.26439
   28 Bend                     3    11    14               125.26439
   29 Bend                     3    11    16               125.26439
   30 Bend                     4    12    13               125.26439
   31 Bend                     4    12    14               125.26439
   32 Bend                     4    12    15               125.26439
   33 Bend                     5    13    10               125.26439
   34 Bend                     5    13    11               125.26439
   35 Bend                     5    13    12               125.26439
   36 Bend                     6    14     9               125.26439
   37 Bend                     6    14    11               125.26439
   38 Bend                     6    14    12               125.26439
   39 Bend                     7    15     9               125.26439
   40 Bend                     7    15    10               125.26439
   41 Bend                     7    15    12               125.26439
   42 Bend                     8    16     9               125.26439
   43 Bend                     8    16    10               125.26439
   44 Bend                     8    16    11               125.26439
   45 Bend                     9    14    11                90.00000
   46 Bend                     9    14    12                90.00000
   47 Bend                     9    15    10                90.00000
   48 Bend                     9    15    12                90.00000
   49 Bend                     9    16    10                90.00000
   50 Bend                     9    16    11                90.00000
   51 Bend                    10    13    11                90.00000
   52 Bend                    10    13    12                90.00000
   53 Bend                    10    15    12                90.00000
   54 Bend                    10    16    11                90.00000
   55 Bend                    11    13    12                90.00000
   56 Bend                    11    14    12                90.00000
   57 Bend                    13    10    15                90.00000
   58 Bend                    13    10    16                90.00000
   59 Bend                    13    11    14                90.00000
   60 Bend                    13    11    16                90.00000
   61 Bend                    13    12    14                90.00000
   62 Bend                    13    12    15                90.00000
   63 Bend                    14     9    15                90.00000
   64 Bend                    14     9    16                90.00000
   65 Bend                    14    11    16                90.00000
   66 Bend                    14    12    15                90.00000
   67 Bend                    15     9    16                90.00000
   68 Bend                    15    10    16                90.00000
   69 Torsion                  1     9    14     6           0.00000
   70 Torsion                  1     9    14    11        -135.00000
   71 Torsion                  1     9    14    12         135.00000
   72 Torsion                  1     9    15     7           0.00000
   73 Torsion                  1     9    15    10         135.00000
   74 Torsion                  1     9    15    12        -135.00000
   75 Torsion                  1     9    16     8           0.00000
   76 Torsion                  1     9    16    10        -135.00000
   77 Torsion                  1     9    16    11         135.00000
   78 Torsion                  2    10    13     5           0.00000
   79 Torsion                  2    10    13    11         135.00000
   80 Torsion                  2    10    13    12        -135.00000
   81 Torsion                  2    10    15     7           0.00000
   82 Torsion                  2    10    15     9        -135.00000
   83 Torsion                  2    10    15    12         135.00000
   84 Torsion                  2    10    16     8           0.00000
   85 Torsion                  2    10    16     9         135.00000
   86 Torsion                  2    10    16    11        -135.00000
   87 Torsion                  3    11    13     5           0.00000
   88 Torsion                  3    11    13    10        -135.00000
   89 Torsion                  3    11    13    12         135.00000
   90 Torsion                  3    11    14     6           0.00000
   91 Torsion                  3    11    14     9         135.00000
   92 Torsion                  3    11    14    12        -135.00000
   93 Torsion                  3    11    16     8           0.00000
   94 Torsion                  3    11    16     9        -135.00000
   95 Torsion                  3    11    16    10         135.00000
   96 Torsion                  4    12    13     5           0.00000
   97 Torsion                  4    12    13    10         135.00000
   98 Torsion                  4    12    13    11        -135.00000
   99 Torsion                  4    12    14     6           0.00000
  100 Torsion                  4    12    14     9        -135.00000
  101 Torsion                  4    12    14    11         135.00000
  102 Torsion                  4    12    15     7           0.00000
  103 Torsion                  4    12    15     9         135.00000
  104 Torsion                  4    12    15    10        -135.00000
  105 Torsion                  5    13    10    15         135.00000
  106 Torsion                  5    13    10    16        -135.00000
  107 Torsion                  5    13    11    14        -135.00000
  108 Torsion                  5    13    11    16         135.00000
  109 Torsion                  5    13    12    14         135.00000
  110 Torsion                  5    13    12    15        -135.00000
  111 Torsion                  6    14     9    15        -135.00000
  112 Torsion                  6    14     9    16         135.00000
  113 Torsion                  6    14    11    13         135.00000
  114 Torsion                  6    14    11    16        -135.00000
  115 Torsion                  6    14    12    13        -135.00000
  116 Torsion                  6    14    12    15         135.00000
  117 Torsion                  7    15     9    14         135.00000
  118 Torsion                  7    15     9    16        -135.00000
  119 Torsion                  7    15    10    13        -135.00000
  120 Torsion                  7    15    10    16         135.00000
  121 Torsion                  7    15    12    13         135.00000
  122 Torsion                  7    15    12    14        -135.00000
  123 Torsion                  8    16     9    14        -135.00000
  124 Torsion                  8    16     9    15         135.00000
  125 Torsion                  8    16    10    13         135.00000
  126 Torsion                  8    16    10    15        -135.00000
  127 Torsion                  8    16    11    13        -135.00000
  128 Torsion                  8    16    11    14         135.00000
  129 Torsion                  9    14    11    13         -90.00000
  130 Torsion                  9    14    11    16           0.00000
  131 Torsion                  9    14    12    13          90.00000
  132 Torsion                  9    14    12    15           0.00000
  133 Torsion                  9    15    10    13          90.00000
  134 Torsion                  9    15    10    16           0.00000
  135 Torsion                  9    15    12    13         -90.00000
  136 Torsion                  9    15    12    14           0.00000
  137 Torsion                  9    16    10    13         -90.00000
  138 Torsion                  9    16    10    15           0.00000
  139 Torsion                  9    16    11    13          90.00000
  140 Torsion                  9    16    11    14           0.00000
  141 Torsion                 10    13    11    14          90.00000
  142 Torsion                 10    13    11    16           0.00000
  143 Torsion                 10    13    12    14         -90.00000
  144 Torsion                 10    13    12    15           0.00000
  145 Torsion                 10    15     9    14         -90.00000
  146 Torsion                 10    15     9    16           0.00000
  147 Torsion                 10    15    12    13           0.00000
  148 Torsion                 10    15    12    14          90.00000
  149 Torsion                 10    16     9    14          90.00000
  150 Torsion                 10    16     9    15           0.00000
  151 Torsion                 10    16    11    13           0.00000
  152 Torsion                 10    16    11    14         -90.00000
  153 Torsion                 11    13    10    15         -90.00000
  154 Torsion                 11    13    10    16           0.00000
  155 Torsion                 11    13    12    14           0.00000
  156 Torsion                 11    13    12    15          90.00000
  157 Torsion                 11    14     9    15          90.00000
  158 Torsion                 11    14     9    16           0.00000
  159 Torsion                 11    14    12    13           0.00000
  160 Torsion                 11    14    12    15         -90.00000
  161 Torsion                 11    16     9    14           0.00000
  162 Torsion                 11    16     9    15         -90.00000
  163 Torsion                 11    16    10    13           0.00000
  164 Torsion                 11    16    10    15          90.00000
  165 Torsion                 12    13    10    15           0.00000
  166 Torsion                 12    13    10    16          90.00000
  167 Torsion                 12    13    11    14           0.00000
  168 Torsion                 12    13    11    16         -90.00000
  169 Torsion                 12    14     9    15           0.00000
  170 Torsion                 12    14     9    16         -90.00000
  171 Torsion                 12    14    11    13           0.00000
  172 Torsion                 12    14    11    16          90.00000
  173 Torsion                 12    15     9    14           0.00000
  174 Torsion                 12    15     9    16          90.00000
  175 Torsion                 12    15    10    13           0.00000
  176 Torsion                 12    15    10    16         -90.00000


            XYZ format geometry
            -------------------
    16
 geometry
 H                     1.42503470     1.42503470     1.42503472
 H                    -1.42503470    -1.42503470     1.42503472
 H                    -1.42503470     1.42503470    -1.42503472
 H                     1.42503470    -1.42503470    -1.42503472
 H                    -1.42503470    -1.42503470    -1.42503472
 H                     1.42503470     1.42503470    -1.42503472
 H                     1.42503470    -1.42503470     1.42503472
 H                    -1.42503470     1.42503470     1.42503472
 C                     0.78961438     0.78961438     0.78961439
 C                    -0.78961438    -0.78961438     0.78961439
 C                    -0.78961438     0.78961438    -0.78961439
 C                     0.78961438    -0.78961438    -0.78961439
 C                    -0.78961438    -0.78961438    -0.78961439
 C                     0.78961438     0.78961438    -0.78961439
 C                     0.78961438    -0.78961438     0.78961439
 C                    -0.78961438     0.78961438     0.78961439

 ==============================================================================
                                internuclear distances
 ------------------------------------------------------------------------------
       center one      |      center two      | atomic units |  angstroms
 ------------------------------------------------------------------------------
    9 C                |   1 H                |     2.07980  |     1.10058
   10 C                |   2 H                |     2.07980  |     1.10058
   11 C                |   3 H                |     2.07980  |     1.10058
   12 C                |   4 H                |     2.07980  |     1.10058
   13 C                |   5 H                |     2.07980  |     1.10058
   13 C                |  10 C                |     2.98431  |     1.57923
   13 C                |  11 C                |     2.98431  |     1.57923
   13 C                |  12 C                |     2.98431  |     1.57923
   14 C                |   6 H                |     2.07980  |     1.10058
   14 C                |   9 C                |     2.98431  |     1.57923
   14 C                |  11 C                |     2.98431  |     1.57923
   14 C                |  12 C                |     2.98431  |     1.57923
   15 C                |   7 H                |     2.07980  |     1.10058
   15 C                |   9 C                |     2.98431  |     1.57923
   15 C                |  10 C                |     2.98431  |     1.57923
   15 C                |  12 C                |     2.98431  |     1.57923
   16 C                |   8 H                |     2.07980  |     1.10058
   16 C                |   9 C                |     2.98431  |     1.57923
   16 C                |  10 C                |     2.98431  |     1.57923
   16 C                |  11 C                |     2.98431  |     1.57923
 ------------------------------------------------------------------------------
                         number of included internuclear distances:         20
 ==============================================================================



 ==============================================================================
                                 internuclear angles
 ------------------------------------------------------------------------------
        center 1       |       center 2       |       center 3       |  degrees
 ------------------------------------------------------------------------------
    1 H                |   9 C                |  14 C                |   125.26
    1 H                |   9 C                |  15 C                |   125.26
    1 H                |   9 C                |  16 C                |   125.26
   14 C                |   9 C                |  15 C                |    90.00
   14 C                |   9 C                |  16 C                |    90.00
   15 C                |   9 C                |  16 C                |    90.00
    2 H                |  10 C                |  13 C                |   125.26
    2 H                |  10 C                |  15 C                |   125.26
    2 H                |  10 C                |  16 C                |   125.26
   13 C                |  10 C                |  15 C                |    90.00
   13 C                |  10 C                |  16 C                |    90.00
   15 C                |  10 C                |  16 C                |    90.00
    3 H                |  11 C                |  13 C                |   125.26
    3 H                |  11 C                |  14 C                |   125.26
    3 H                |  11 C                |  16 C                |   125.26
   13 C                |  11 C                |  14 C                |    90.00
   13 C                |  11 C                |  16 C                |    90.00
   14 C                |  11 C                |  16 C                |    90.00
    4 H                |  12 C                |  13 C                |   125.26
    4 H                |  12 C                |  14 C                |   125.26
    4 H                |  12 C                |  15 C                |   125.26
   13 C                |  12 C                |  14 C                |    90.00
   13 C                |  12 C                |  15 C                |    90.00
   14 C                |  12 C                |  15 C                |    90.00
    5 H                |  13 C                |  10 C                |   125.26
    5 H                |  13 C                |  11 C                |   125.26
    5 H                |  13 C                |  12 C                |   125.26
   10 C                |  13 C                |  11 C                |    90.00
   10 C                |  13 C                |  12 C                |    90.00
   11 C                |  13 C                |  12 C                |    90.00
    6 H                |  14 C                |   9 C                |   125.26
    6 H                |  14 C                |  11 C                |   125.26
    6 H                |  14 C                |  12 C                |   125.26
    9 C                |  14 C                |  11 C                |    90.00
    9 C                |  14 C                |  12 C                |    90.00
   11 C                |  14 C                |  12 C                |    90.00
    7 H                |  15 C                |   9 C                |   125.26
    7 H                |  15 C                |  10 C                |   125.26
    7 H                |  15 C                |  12 C                |   125.26
    9 C                |  15 C                |  10 C                |    90.00
    9 C                |  15 C                |  12 C                |    90.00
   10 C                |  15 C                |  12 C                |    90.00
    8 H                |  16 C                |   9 C                |   125.26
    8 H                |  16 C                |  10 C                |   125.26
    8 H                |  16 C                |  11 C                |   125.26
    9 C                |  16 C                |  10 C                |    90.00
    9 C                |  16 C                |  11 C                |    90.00
   10 C                |  16 C                |  11 C                |    90.00
 ------------------------------------------------------------------------------
                            number of included internuclear angles:         48
 ==============================================================================



  library name resolved from: environment
  library file name is: </home/vladimir/bin/nwchem-6.6/src/basis/libraries/>
  
                      Basis "ao basis" -> "" (spherical)
                      -----
  H (Hydrogen)
  ------------
            Exponent  Coefficients 
       -------------- ---------------------------------------------------------
  1 S  1.30100000E+01  0.019685
  1 S  1.96200000E+00  0.137977
  1 S  4.44600000E-01  0.478148

  2 S  1.22000000E-01  1.000000

  3 P  7.27000000E-01  1.000000

  C (Carbon)
  ----------
            Exponent  Coefficients 
       -------------- ---------------------------------------------------------
  1 S  6.66500000E+03  0.000692
  1 S  1.00000000E+03  0.005329
  1 S  2.28000000E+02  0.027077
  1 S  6.47100000E+01  0.101718
  1 S  2.10600000E+01  0.274740
  1 S  7.49500000E+00  0.448564
  1 S  2.79700000E+00  0.285074
  1 S  5.21500000E-01  0.015204

  2 S  6.66500000E+03 -0.000146
  2 S  1.00000000E+03 -0.001154
  2 S  2.28000000E+02 -0.005725
  2 S  6.47100000E+01 -0.023312
  2 S  2.10600000E+01 -0.063955
  2 S  7.49500000E+00 -0.149981
  2 S  2.79700000E+00 -0.127262
  2 S  5.21500000E-01  0.544529

  3 S  1.59600000E-01  1.000000

  4 P  9.43900000E+00  0.038109
  4 P  2.00200000E+00  0.209480
  4 P  5.45600000E-01  0.508557

  5 P  1.51700000E-01  1.000000

  6 D  5.50000000E-01  1.000000



 Summary of "ao basis" -> "" (spherical)
 ------------------------------------------------------------------------------
       Tag                 Description            Shells   Functions and Types
 ---------------- ------------------------------  ------  ---------------------
 H                          cc-pVDZ                  3        5   2s1p
 C                          cc-pVDZ                  6       14   3s2p1d




                   NWChem Nuclear Hessian and Frequency Analysis
                   ---------------------------------------------



                         NWChem Finite-difference Hessian
                         --------------------------------


                                 NWChem SCF Module
                                 -----------------


                            cubane CCSD/cc-pVDZ hessian



  ao basis        = "ao basis"
  functions       =   152
  atoms           =    16
  closed shells   =    28
  open shells     =     0
  charge          =   0.00
  wavefunction    = RHF 
  input vectors   = atomic
  output vectors  = ./cubane.movecs
  use symmetry    = T
  symmetry adapt  = T


 Summary of "ao basis" -> "ao basis" (spherical)
 ------------------------------------------------------------------------------
       Tag                 Description            Shells   Functions and Types
 ---------------- ------------------------------  ------  ---------------------
 H                          cc-pVDZ                  3        5   2s1p
 C                          cc-pVDZ                  6       14   3s2p1d


      Symmetry analysis of basis
      --------------------------

        ag         19
        au         19
        b1g        19
        b1u        19
        b2g        19
        b2u        19
        b3g        19
        b3u        19


 Forming initial guess at       0.2s


      Superposition of Atomic Density Guess
      -------------------------------------

 Sum of atomic energies:        -305.32340088

      Non-variational initial energy
      ------------------------------

 Total energy =    -311.499091
 1-e energy   =   -1132.654183
 2-e energy   =     456.519868
 HOMO         =      -0.284103
 LUMO         =       0.058424


      Symmetry analysis of molecular orbitals - initial
      -------------------------------------------------


 !! scf_movecs_sym_adapt:   76 vectors were symmetry contaminated

  Symmetry fudging

 !! scf_movecs_sym_adapt:   74 vectors were symmetry contaminated

  Numbering of irreducible representations: 

     1 ag          2 au          3 b1g         4 b1u         5 b2g     
     6 b2u         7 b3g         8 b3u     

  Orbital symmetries:

     1 ag          2 b1u         3 b2u         4 b3u         5 b2g     
     6 b3g         7 b1g         8 au          9 ag         10 b1u     
    11 b3u        12 b2u        13 b3g        14 b2g        15 b1g     
    16 ag         17 au         18 ag         19 ag         20 b1u     
    21 b2u        22 b3u        23 b1u        24 b3u        25 b2u     
    26 b2g        27 b3g        28 b1g        29 b1u        30 b2u     
    31 b3u        32 ag         33 b1u        34 b2u        35 b3u     
    36 b3g        37 b2g        38 b1g     


 Starting SCF solution at       0.8s



 ----------------------------------------------
         Quadratically convergent ROHF

 Convergence threshold     :          1.000E-04
 Maximum no. of iterations :           30
 Final Fock-matrix accuracy:          1.000E-07
 ----------------------------------------------


 Integral file          = ./cubane.aoints.0
 Record size in doubles =  65536        No. of integs per rec  =  43688
 Max. records in memory =    341        Max. records in file   = 753712
 No. of bits per label  =      8        No. of bits per value  =     64


 #quartets = 4.568D+05 #integrals = 8.367D+06 #direct =  0.0% #cached =100.0%


              iter       energy          gnorm     gmax       time
             ----- ------------------- --------- --------- --------
                 1     -307.3309576462  9.09D-01  2.43D-01      3.1
                 2     -307.4106122007  1.60D-01  3.75D-02      3.5
                 3     -307.4123838406  5.57D-03  1.37D-03      4.0
                 4     -307.4123874001  4.70D-06  9.34D-07      4.7


       Final RHF  results 
       ------------------ 

         Total SCF energy =   -307.412387400081
      One-electron energy =  -1138.419419630492
      Two-electron energy =    466.371807557880
 Nuclear repulsion energy =    364.635224672530

        Time for solution =      3.7s



       Symmetry analysis of molecular orbitals - final
       -----------------------------------------------

  Numbering of irreducible representations: 

     1 ag          2 au          3 b1g         4 b1u         5 b2g     
     6 b2u         7 b3g         8 b3u     

  Orbital symmetries:

     1 ag          2 b1u         3 b2u         4 b3u         5 b2g     
     6 b3g         7 b1g         8 au          9 ag         10 b1u     
    11 b3u        12 b2u        13 b3g        14 b2g        15 b1g     
    16 ag         17 au         18 b1u        19 b2u        20 b3u     
    21 ag         22 ag         23 b1u        24 b3u        25 b2u     
    26 b3g        27 b2g        28 b1g        29 ag         30 b1u     
    31 b3u        32 b2u        33 b3g        34 b2g        35 b1g     
    36 b1u        37 b3u        38 b2u     

             Final eigenvalues
             -----------------

              1      
    1  -11.2301
    2  -11.2296
    3  -11.2296
    4  -11.2296
    5  -11.2291
    6  -11.2291
    7  -11.2291
    8  -11.2286
    9   -1.2377
   10   -0.9754
   11   -0.9754
   12   -0.9754
   13   -0.7659
   14   -0.7659
   15   -0.7659
   16   -0.7040
   17   -0.6394
   18   -0.5764
   19   -0.5764
   20   -0.5764
   21   -0.5744
   22   -0.5744
   23   -0.3891
   24   -0.3891
   25   -0.3891
   26   -0.3841
   27   -0.3841
   28   -0.3841
   29    0.1817
   30    0.2026
   31    0.2026
   32    0.2026
   33    0.2534
   34    0.2534
   35    0.2534
   36    0.2569
   37    0.2569
   38    0.2569

                       ROHF Final Molecular Orbital Analysis
                       -------------------------------------

 Vector    9  Occ=2.000000D+00  E=-1.237663D+00  Symmetry=ag
              MO Center= -1.3D-17, -2.7D-17,  5.8D-17, r^2= 1.7D+00
   Bfn.  Coefficient  Atom+Function         Bfn.  Coefficient  Atom+Function  
  ----- ------------  ---------------      ----- ------------  ---------------
    42      0.134722   9 C  s                56      0.134722  10 C  s         
    70      0.134722  11 C  s                84      0.134722  12 C  s         
    98      0.134722  13 C  s               112      0.134722  14 C  s         
   126      0.134722  15 C  s               140      0.134722  16 C  s         

 Vector   10  Occ=2.000000D+00  E=-9.754164D-01  Symmetry=b1u
              MO Center= -7.5D-17,  6.7D-18,  1.2D-16, r^2= 2.6D+00
   Bfn.  Coefficient  Atom+Function         Bfn.  Coefficient  Atom+Function  
  ----- ------------  ---------------      ----- ------------  ---------------
    42      0.137527   9 C  s                56      0.137527  10 C  s         
    70     -0.137527  11 C  s                84     -0.137527  12 C  s         
    98     -0.137527  13 C  s               112     -0.137527  14 C  s         
   126      0.137527  15 C  s               140      0.137527  16 C  s         

 Vector   11  Occ=2.000000D+00  E=-9.754164D-01  Symmetry=b3u
              MO Center= -9.5D-17, -7.6D-17, -6.5D-18, r^2= 2.6D+00
   Bfn.  Coefficient  Atom+Function         Bfn.  Coefficient  Atom+Function  
  ----- ------------  ---------------      ----- ------------  ---------------
    42      0.137527   9 C  s                56     -0.137527  10 C  s         
    70     -0.137527  11 C  s                84      0.137527  12 C  s         
    98     -0.137527  13 C  s               112      0.137527  14 C  s         
   126      0.137527  15 C  s               140     -0.137527  16 C  s         

 Vector   12  Occ=2.000000D+00  E=-9.754164D-01  Symmetry=b2u
              MO Center=  2.8D-17,  1.3D-17, -4.1D-17, r^2= 2.6D+00
   Bfn.  Coefficient  Atom+Function         Bfn.  Coefficient  Atom+Function  
  ----- ------------  ---------------      ----- ------------  ---------------
    42      0.137527   9 C  s                56     -0.137527  10 C  s         
    70      0.137527  11 C  s                84     -0.137527  12 C  s         
    98     -0.137527  13 C  s               112      0.137527  14 C  s         
   126     -0.137527  15 C  s               140      0.137527  16 C  s         

 Vector   13  Occ=2.000000D+00  E=-7.658561D-01  Symmetry=b3g
              MO Center=  1.7D-17,  2.4D-17,  1.0D-16, r^2= 4.1D+00
   Bfn.  Coefficient  Atom+Function         Bfn.  Coefficient  Atom+Function  
  ----- ------------  ---------------      ----- ------------  ---------------
    43      0.153825   9 C  s                57     -0.153825  10 C  s         
    71     -0.153825  11 C  s                85      0.153825  12 C  s         
    99      0.153825  13 C  s               113     -0.153825  14 C  s         
   127     -0.153825  15 C  s               141      0.153825  16 C  s         

 Vector   14  Occ=2.000000D+00  E=-7.658561D-01  Symmetry=b2g
              MO Center=  2.9D-17, -1.2D-16, -9.8D-17, r^2= 4.1D+00
   Bfn.  Coefficient  Atom+Function         Bfn.  Coefficient  Atom+Function  
  ----- ------------  ---------------      ----- ------------  ---------------
    43      0.153825   9 C  s                57     -0.153825  10 C  s         
    71      0.153825  11 C  s                85     -0.153825  12 C  s         
    99      0.153825  13 C  s               113     -0.153825  14 C  s         
   127      0.153825  15 C  s               141     -0.153825  16 C  s         

 Vector   15  Occ=2.000000D+00  E=-7.658561D-01  Symmetry=b1g
              MO Center= -1.3D-16,  6.1D-17, -3.2D-17, r^2= 4.1D+00
   Bfn.  Coefficient  Atom+Function         Bfn.  Coefficient  Atom+Function  
  ----- ------------  ---------------      ----- ------------  ---------------
    43      0.153825   9 C  s                57      0.153825  10 C  s         
    71     -0.153825  11 C  s                85     -0.153825  12 C  s         
    99      0.153825  13 C  s               113      0.153825  14 C  s         
   127     -0.153825  15 C  s               141     -0.153825  16 C  s         

 Vector   16  Occ=2.000000D+00  E=-7.039834D-01  Symmetry=ag
              MO Center= -2.8D-17,  7.6D-17,  4.5D-17, r^2= 4.4D+00
   Bfn.  Coefficient  Atom+Function         Bfn.  Coefficient  Atom+Function  
  ----- ------------  ---------------      ----- ------------  ---------------
     1      0.132586   1 H  s                 6      0.132586   2 H  s         
    11      0.132586   3 H  s                16      0.132586   4 H  s         
    21      0.132586   5 H  s                26      0.132586   6 H  s         
    31      0.132586   7 H  s                36      0.132586   8 H  s         

 Vector   17  Occ=2.000000D+00  E=-6.394176D-01  Symmetry=au
              MO Center=  5.7D-17, -9.1D-17,  8.3D-18, r^2= 5.2D+00
   Bfn.  Coefficient  Atom+Function         Bfn.  Coefficient  Atom+Function  
  ----- ------------  ---------------      ----- ------------  ---------------
     1      0.154929   1 H  s                 6      0.154929   2 H  s         
    11      0.154929   3 H  s                16      0.154929   4 H  s         
    21     -0.154929   5 H  s                26     -0.154929   6 H  s         
    31     -0.154929   7 H  s                36     -0.154929   8 H  s         

 Vector   18  Occ=2.000000D+00  E=-5.764352D-01  Symmetry=b1u
              MO Center=  2.3D-16,  9.3D-17,  1.5D-16, r^2= 4.3D+00
   Bfn.  Coefficient  Atom+Function         Bfn.  Coefficient  Atom+Function  
  ----- ------------  ---------------      ----- ------------  ---------------
     1      0.139767   1 H  s                 6      0.139767   2 H  s         
    11     -0.139767   3 H  s                16     -0.139767   4 H  s         
    21     -0.139767   5 H  s                26     -0.139767   6 H  s         
    31      0.139767   7 H  s                36      0.139767   8 H  s         

 Vector   19  Occ=2.000000D+00  E=-5.764352D-01  Symmetry=b2u
              MO Center=  4.7D-17, -3.1D-16, -1.0D-17, r^2= 4.3D+00
   Bfn.  Coefficient  Atom+Function         Bfn.  Coefficient  Atom+Function  
  ----- ------------  ---------------      ----- ------------  ---------------
     1      0.139767   1 H  s                 6     -0.139767   2 H  s         
    11      0.139767   3 H  s                16     -0.139767   4 H  s         
    21     -0.139767   5 H  s                26      0.139767   6 H  s         
    31     -0.139767   7 H  s                36      0.139767   8 H  s         

 Vector   20  Occ=2.000000D+00  E=-5.764352D-01  Symmetry=b3u
              MO Center= -1.3D-17, -4.3D-17,  3.9D-17, r^2= 4.3D+00
   Bfn.  Coefficient  Atom+Function         Bfn.  Coefficient  Atom+Function  
  ----- ------------  ---------------      ----- ------------  ---------------
     1      0.139767   1 H  s                 6     -0.139767   2 H  s         
    11     -0.139767   3 H  s                16      0.139767   4 H  s         
    21     -0.139767   5 H  s                26      0.139767   6 H  s         
    31      0.139767   7 H  s                36     -0.139767   8 H  s         

 Vector   21  Occ=2.000000D+00  E=-5.744359D-01  Symmetry=ag
              MO Center=  5.8D-17,  3.3D-16, -1.6D-16, r^2= 2.6D+00
   Bfn.  Coefficient  Atom+Function         Bfn.  Coefficient  Atom+Function  
  ----- ------------  ---------------      ----- ------------  ---------------
    46      0.168146   9 C  pz               60      0.168146  10 C  pz        
    74     -0.168146  11 C  pz               88     -0.168146  12 C  pz        
   102     -0.168146  13 C  pz              116     -0.168146  14 C  pz        
   130      0.168146  15 C  pz              144      0.168146  16 C  pz        

 Vector   22  Occ=2.000000D+00  E=-5.744359D-01  Symmetry=ag
              MO Center=  2.3D-16, -7.1D-17,  4.3D-17, r^2= 2.6D+00
   Bfn.  Coefficient  Atom+Function         Bfn.  Coefficient  Atom+Function  
  ----- ------------  ---------------      ----- ------------  ---------------
    44      0.145619   9 C  px               45     -0.145619   9 C  py        
    58     -0.145619  10 C  px               59      0.145619  10 C  py        
    72     -0.145619  11 C  px               73     -0.145619  11 C  py        
    86      0.145619  12 C  px               87      0.145619  12 C  py        
   100     -0.145619  13 C  px              101      0.145619  13 C  py        

 Vector   23  Occ=2.000000D+00  E=-3.891460D-01  Symmetry=b1u
              MO Center= -1.0D-17,  3.8D-17, -1.7D-16, r^2= 2.9D+00
   Bfn.  Coefficient  Atom+Function         Bfn.  Coefficient  Atom+Function  
  ----- ------------  ---------------      ----- ------------  ---------------
    44      0.162233   9 C  px               45     -0.162233   9 C  py        
    58     -0.162233  10 C  px               59      0.162233  10 C  py        
    72      0.162233  11 C  px               73      0.162233  11 C  py        
    86     -0.162233  12 C  px               87     -0.162233  12 C  py        
   100      0.162233  13 C  px              101     -0.162233  13 C  py        

 Vector   24  Occ=2.000000D+00  E=-3.891460D-01  Symmetry=b3u
              MO Center=  5.5D-17,  2.1D-17, -1.1D-16, r^2= 2.9D+00
   Bfn.  Coefficient  Atom+Function         Bfn.  Coefficient  Atom+Function  
  ----- ------------  ---------------      ----- ------------  ---------------
    45      0.162233   9 C  py               46     -0.162233   9 C  pz        
    59      0.162233  10 C  py               60      0.162233  10 C  pz        
    73     -0.162233  11 C  py               74     -0.162233  11 C  pz        
    87     -0.162233  12 C  py               88      0.162233  12 C  pz        
   101      0.162233  13 C  py              102     -0.162233  13 C  pz        

 Vector   25  Occ=2.000000D+00  E=-3.891460D-01  Symmetry=b2u
              MO Center=  5.2D-17, -1.1D-16, -1.2D-17, r^2= 2.9D+00
   Bfn.  Coefficient  Atom+Function         Bfn.  Coefficient  Atom+Function  
  ----- ------------  ---------------      ----- ------------  ---------------
    44      0.162233   9 C  px               46     -0.162233   9 C  pz        
    58      0.162233  10 C  px               60      0.162233  10 C  pz        
    72     -0.162233  11 C  px               74      0.162233  11 C  pz        
    86     -0.162233  12 C  px               88     -0.162233  12 C  pz        
   100      0.162233  13 C  px              102     -0.162233  13 C  pz        

 Vector   26  Occ=2.000000D+00  E=-3.841260D-01  Symmetry=b3g
              MO Center= -7.0D-17,  1.8D-16,  5.9D-17, r^2= 3.6D+00
   Bfn.  Coefficient  Atom+Function         Bfn.  Coefficient  Atom+Function  
  ----- ------------  ---------------      ----- ------------  ---------------
    44      0.208623   9 C  px               58      0.208623  10 C  px        
    72      0.208623  11 C  px               86      0.208623  12 C  px        
   100     -0.208623  13 C  px              114     -0.208623  14 C  px        
   128     -0.208623  15 C  px              142     -0.208623  16 C  px        

 Vector   27  Occ=2.000000D+00  E=-3.841260D-01  Symmetry=b2g
              MO Center= -3.1D-17,  2.5D-17,  2.3D-16, r^2= 3.6D+00
   Bfn.  Coefficient  Atom+Function         Bfn.  Coefficient  Atom+Function  
  ----- ------------  ---------------      ----- ------------  ---------------
    45      0.208623   9 C  py               59      0.208623  10 C  py        
    73      0.208623  11 C  py               87      0.208623  12 C  py        
   101     -0.208623  13 C  py              115     -0.208623  14 C  py        
   129     -0.208623  15 C  py              143     -0.208623  16 C  py        

 Vector   28  Occ=2.000000D+00  E=-3.841260D-01  Symmetry=b1g
              MO Center=  5.2D-17, -5.4D-17, -9.8D-17, r^2= 3.6D+00
   Bfn.  Coefficient  Atom+Function         Bfn.  Coefficient  Atom+Function  
  ----- ------------  ---------------      ----- ------------  ---------------
    46      0.208623   9 C  pz               60      0.208623  10 C  pz        
    74      0.208623  11 C  pz               88      0.208623  12 C  pz        
   102     -0.208623  13 C  pz              116     -0.208623  14 C  pz        
   130     -0.208623  15 C  pz              144     -0.208623  16 C  pz        

 Vector   29  Occ=0.000000D+00  E= 1.816660D-01  Symmetry=ag
              MO Center=  5.9D-17, -1.8D-16,  6.5D-16, r^2= 1.0D+01
   Bfn.  Coefficient  Atom+Function         Bfn.  Coefficient  Atom+Function  
  ----- ------------  ---------------      ----- ------------  ---------------
     2      0.681303   1 H  s                 7      0.681303   2 H  s         
    12      0.681303   3 H  s                17      0.681303   4 H  s         
    22      0.681303   5 H  s                27      0.681303   6 H  s         
    32      0.681303   7 H  s                37      0.681303   8 H  s         
    43     -0.550029   9 C  s                57     -0.550029  10 C  s         

 Vector   30  Occ=0.000000D+00  E= 2.026365D-01  Symmetry=b1u
              MO Center= -3.5D-16, -9.1D-17, -3.9D-16, r^2= 7.2D+00
   Bfn.  Coefficient  Atom+Function         Bfn.  Coefficient  Atom+Function  
  ----- ------------  ---------------      ----- ------------  ---------------
    43      0.727339   9 C  s                57      0.727339  10 C  s         
    71     -0.727339  11 C  s                85     -0.727339  12 C  s         
    99     -0.727339  13 C  s               113     -0.727339  14 C  s         
   127      0.727339  15 C  s               141      0.727339  16 C  s         
     2     -0.461772   1 H  s                 7     -0.461772   2 H  s         

 Vector   31  Occ=0.000000D+00  E= 2.026365D-01  Symmetry=b3u
              MO Center=  8.5D-16, -1.3D-16,  2.6D-16, r^2= 7.2D+00
   Bfn.  Coefficient  Atom+Function         Bfn.  Coefficient  Atom+Function  
  ----- ------------  ---------------      ----- ------------  ---------------
    43      0.727339   9 C  s                57     -0.727339  10 C  s         
    71     -0.727339  11 C  s                85      0.727339  12 C  s         
    99     -0.727339  13 C  s               113      0.727339  14 C  s         
   127      0.727339  15 C  s               141     -0.727339  16 C  s         
     2     -0.461773   1 H  s                 7      0.461773   2 H  s         

 Vector   32  Occ=0.000000D+00  E= 2.026365D-01  Symmetry=b2u
              MO Center= -3.7D-16,  3.4D-16,  1.3D-16, r^2= 7.2D+00
   Bfn.  Coefficient  Atom+Function         Bfn.  Coefficient  Atom+Function  
  ----- ------------  ---------------      ----- ------------  ---------------
    43      0.727339   9 C  s                57     -0.727339  10 C  s         
    71      0.727339  11 C  s                85     -0.727339  12 C  s         
    99     -0.727339  13 C  s               113      0.727339  14 C  s         
   127     -0.727339  15 C  s               141      0.727339  16 C  s         
     2     -0.461773   1 H  s                 7      0.461773   2 H  s         

 Vector   33  Occ=0.000000D+00  E= 2.533836D-01  Symmetry=b3g
              MO Center=  5.7D-16,  4.4D-16, -1.8D-15, r^2= 1.2D+01
   Bfn.  Coefficient  Atom+Function         Bfn.  Coefficient  Atom+Function  
  ----- ------------  ---------------      ----- ------------  ---------------
     2      0.955178   1 H  s                 7     -0.955178   2 H  s         
    12     -0.955178   3 H  s                17      0.955178   4 H  s         
    22      0.955178   5 H  s                27     -0.955178   6 H  s         
    32     -0.955178   7 H  s                37      0.955178   8 H  s         
    47     -0.501815   9 C  px               61     -0.501815  10 C  px        

 Vector   34  Occ=0.000000D+00  E= 2.533836D-01  Symmetry=b2g
              MO Center=  6.5D-16, -1.5D-15,  7.2D-16, r^2= 1.2D+01
   Bfn.  Coefficient  Atom+Function         Bfn.  Coefficient  Atom+Function  
  ----- ------------  ---------------      ----- ------------  ---------------
     2      0.955178   1 H  s                 7     -0.955178   2 H  s         
    12      0.955178   3 H  s                17     -0.955178   4 H  s         
    22      0.955178   5 H  s                27     -0.955178   6 H  s         
    32      0.955178   7 H  s                37     -0.955178   8 H  s         
    48     -0.501815   9 C  py               62     -0.501815  10 C  py        

 Vector   35  Occ=0.000000D+00  E= 2.533836D-01  Symmetry=b1g
              MO Center= -2.8D-16,  9.6D-16,  2.5D-15, r^2= 1.2D+01
   Bfn.  Coefficient  Atom+Function         Bfn.  Coefficient  Atom+Function  
  ----- ------------  ---------------      ----- ------------  ---------------
     2      0.955178   1 H  s                 7      0.955178   2 H  s         
    12     -0.955178   3 H  s                17     -0.955178   4 H  s         
    22      0.955178   5 H  s                27      0.955178   6 H  s         
    32     -0.955178   7 H  s                37     -0.955178   8 H  s         
    49     -0.501815   9 C  pz               63     -0.501815  10 C  pz        

 Vector   36  Occ=0.000000D+00  E= 2.568969D-01  Symmetry=b1u
              MO Center=  8.1D-16,  4.1D-16,  3.4D-15, r^2= 8.5D+00
   Bfn.  Coefficient  Atom+Function         Bfn.  Coefficient  Atom+Function  
  ----- ------------  ---------------      ----- ------------  ---------------
     2      0.735511   1 H  s                 7      0.735511   2 H  s         
    12     -0.735511   3 H  s                17     -0.735511   4 H  s         
    22     -0.735511   5 H  s                27     -0.735511   6 H  s         
    32      0.735511   7 H  s                37      0.735511   8 H  s         
    49     -0.605563   9 C  pz               63     -0.605563  10 C  pz        

 Vector   37  Occ=0.000000D+00  E= 2.568969D-01  Symmetry=b3u
              MO Center= -1.1D-15,  1.5D-16, -1.1D-15, r^2= 8.5D+00
   Bfn.  Coefficient  Atom+Function         Bfn.  Coefficient  Atom+Function  
  ----- ------------  ---------------      ----- ------------  ---------------
     2      0.735511   1 H  s                 7     -0.735511   2 H  s         
    12     -0.735511   3 H  s                17      0.735511   4 H  s         
    22     -0.735511   5 H  s                27      0.735511   6 H  s         
    32      0.735511   7 H  s                37     -0.735511   8 H  s         
    47     -0.605563   9 C  px               61     -0.605563  10 C  px        

 Vector   38  Occ=0.000000D+00  E= 2.568969D-01  Symmetry=b2u
              MO Center=  6.1D-16, -3.8D-15,  9.6D-16, r^2= 8.5D+00
   Bfn.  Coefficient  Atom+Function         Bfn.  Coefficient  Atom+Function  
  ----- ------------  ---------------      ----- ------------  ---------------
     2      0.735511   1 H  s                 7     -0.735511   2 H  s         
    12      0.735511   3 H  s                17     -0.735511   4 H  s         
    22     -0.735511   5 H  s                27      0.735511   6 H  s         
    32     -0.735511   7 H  s                37      0.735511   8 H  s         
    48     -0.605563   9 C  py               62     -0.605563  10 C  py        

 Vector   39  Occ=0.000000D+00  E= 2.639503D-01  Symmetry=au
              MO Center=  4.1D-15, -5.3D-15, -1.3D-14, r^2= 1.3D+01
   Bfn.  Coefficient  Atom+Function         Bfn.  Coefficient  Atom+Function  
  ----- ------------  ---------------      ----- ------------  ---------------
    43      1.498377   9 C  s                57      1.498377  10 C  s         
    71      1.498377  11 C  s                85      1.498377  12 C  s         
    99     -1.498377  13 C  s               113     -1.498377  14 C  s         
   127     -1.498377  15 C  s               141     -1.498377  16 C  s         
     2      1.293825   1 H  s                 7      1.293825   2 H  s         

 Vector   40  Occ=0.000000D+00  E= 3.683779D-01  Symmetry=b2g
              MO Center=  7.1D-16,  2.0D-16, -7.5D-17, r^2= 4.5D+00
   Bfn.  Coefficient  Atom+Function         Bfn.  Coefficient  Atom+Function  
  ----- ------------  ---------------      ----- ------------  ---------------
    47      0.579212   9 C  px               49     -0.579212   9 C  pz        
    61      0.579212  10 C  px               63      0.579212  10 C  pz        
    75     -0.579212  11 C  px               77      0.579212  11 C  pz        
    89     -0.579212  12 C  px               91     -0.579212  12 C  pz        
   103     -0.579212  13 C  px              105      0.579212  13 C  pz        

 Vector   41  Occ=0.000000D+00  E= 3.683779D-01  Symmetry=b3g
              MO Center=  7.2D-18, -2.1D-17,  8.8D-16, r^2= 4.5D+00
   Bfn.  Coefficient  Atom+Function         Bfn.  Coefficient  Atom+Function  
  ----- ------------  ---------------      ----- ------------  ---------------
    48      0.579212   9 C  py               49     -0.579212   9 C  pz        
    62      0.579212  10 C  py               63      0.579212  10 C  pz        
    76     -0.579212  11 C  py               77     -0.579212  11 C  pz        
    90     -0.579212  12 C  py               91      0.579212  12 C  pz        
   104     -0.579212  13 C  py              105      0.579212  13 C  pz        

 Vector   42  Occ=0.000000D+00  E= 3.683779D-01  Symmetry=b1g
              MO Center= -8.5D-16,  1.4D-16, -1.7D-16, r^2= 4.5D+00
   Bfn.  Coefficient  Atom+Function         Bfn.  Coefficient  Atom+Function  
  ----- ------------  ---------------      ----- ------------  ---------------
    47      0.579212   9 C  px               48     -0.579212   9 C  py        
    61     -0.579212  10 C  px               62      0.579212  10 C  py        
    75      0.579212  11 C  px               76      0.579212  11 C  py        
    89     -0.579212  12 C  px               90     -0.579212  12 C  py        
   103     -0.579212  13 C  px              104      0.579212  13 C  py        

 Vector   43  Occ=0.000000D+00  E= 4.469776D-01  Symmetry=b2g
              MO Center=  3.9D-15,  4.5D-15,  4.2D-15, r^2= 6.4D+00
   Bfn.  Coefficient  Atom+Function         Bfn.  Coefficient  Atom+Function  
  ----- ------------  ---------------      ----- ------------  ---------------
    43      1.776413   9 C  s                57     -1.776413  10 C  s         
    71      1.776413  11 C  s                85     -1.776413  12 C  s         
    99      1.776413  13 C  s               113     -1.776413  14 C  s         
   127      1.776413  15 C  s               141     -1.776413  16 C  s         
    47     -1.085160   9 C  px               49     -1.085160   9 C  pz        

 Vector   44  Occ=0.000000D+00  E= 4.469776D-01  Symmetry=b3g
              MO Center=  6.0D-15,  1.5D-15,  2.6D-15, r^2= 6.4D+00
   Bfn.  Coefficient  Atom+Function         Bfn.  Coefficient  Atom+Function  
  ----- ------------  ---------------      ----- ------------  ---------------
    43      1.776413   9 C  s                57     -1.776413  10 C  s         
    71     -1.776413  11 C  s                85      1.776413  12 C  s         
    99      1.776413  13 C  s               113     -1.776413  14 C  s         
   127     -1.776413  15 C  s               141      1.776413  16 C  s         
    48     -1.085160   9 C  py               49     -1.085160   9 C  pz        

 Vector   45  Occ=0.000000D+00  E= 4.469776D-01  Symmetry=b1g
              MO Center= -2.6D-16, -7.3D-16,  2.5D-15, r^2= 6.4D+00
   Bfn.  Coefficient  Atom+Function         Bfn.  Coefficient  Atom+Function  
  ----- ------------  ---------------      ----- ------------  ---------------
    43      1.776414   9 C  s                57      1.776414  10 C  s         
    71     -1.776414  11 C  s                85     -1.776414  12 C  s         
    99      1.776414  13 C  s               113      1.776414  14 C  s         
   127     -1.776414  15 C  s               141     -1.776414  16 C  s         
    47     -1.085160   9 C  px               48     -1.085160   9 C  py        

 Vector   46  Occ=0.000000D+00  E= 4.941383D-01  Symmetry=ag
              MO Center= -2.1D-14,  2.0D-14,  2.1D-14, r^2= 5.8D+00
   Bfn.  Coefficient  Atom+Function         Bfn.  Coefficient  Atom+Function  
  ----- ------------  ---------------      ----- ------------  ---------------
     1      0.308583   1 H  s                 6      0.308583   2 H  s         
    11      0.308583   3 H  s                16      0.308583   4 H  s         
    21      0.308583   5 H  s                26      0.308583   6 H  s         
    31      0.308583   7 H  s                36      0.308583   8 H  s         
     2     -0.249150   1 H  s                 7     -0.249150   2 H  s         

 Vector   47  Occ=0.000000D+00  E= 5.194599D-01  Symmetry=au
              MO Center= -1.5D-15,  9.6D-17, -4.0D-15, r^2= 5.0D+00
   Bfn.  Coefficient  Atom+Function         Bfn.  Coefficient  Atom+Function  
  ----- ------------  ---------------      ----- ------------  ---------------
    49      1.184705   9 C  pz               63      1.184705  10 C  pz        
    77     -1.184705  11 C  pz               91     -1.184705  12 C  pz        
   105      1.184705  13 C  pz              119      1.184705  14 C  pz        
   133     -1.184705  15 C  pz              147     -1.184705  16 C  pz        
    47     -0.592403   9 C  px               48     -0.592302   9 C  py        


 center of mass
 --------------
 x =   0.00000000 y =   0.00000000 z =   0.00000000

 moments of inertia (a.u.)
 ------------------
         544.430458617645           0.000000000000           0.000000000000
           0.000000000000         544.430458617645           0.000000000000
           0.000000000000           0.000000000000         544.430451562511

  Mulliken analysis of the total density
  --------------------------------------

    Atom       Charge   Shell Charges
 -----------   ------   -------------------------------------------------------
    1 H    1     1.00   0.75  0.21  0.03
    2 H    1     1.00   0.75  0.21  0.03
    3 H    1     1.00   0.75  0.21  0.03
    4 H    1     1.00   0.75  0.21  0.03
    5 H    1     1.00   0.75  0.21  0.03
    6 H    1     1.00   0.75  0.21  0.03
    7 H    1     1.00   0.75  0.21  0.03
    8 H    1     1.00   0.75  0.21  0.03
    9 C    6     6.00   2.01  0.63  0.57  1.98  0.73  0.09
   10 C    6     6.00   2.01  0.63  0.57  1.98  0.73  0.09
   11 C    6     6.00   2.01  0.63  0.57  1.98  0.73  0.09
   12 C    6     6.00   2.01  0.63  0.57  1.98  0.73  0.09
   13 C    6     6.00   2.01  0.63  0.57  1.98  0.73  0.09
   14 C    6     6.00   2.01  0.63  0.57  1.98  0.73  0.09
   15 C    6     6.00   2.01  0.63  0.57  1.98  0.73  0.09
   16 C    6     6.00   2.01  0.63  0.57  1.98  0.73  0.09

       Multipole analysis of the density wrt the origin
       ------------------------------------------------

     L   x y z        total         open         nuclear
     -   - - -        -----         ----         -------
     0   0 0 0      0.000000      0.000000     56.000000

     1   1 0 0     -0.000000      0.000000      0.000000
     1   0 1 0     -0.000000      0.000000      0.000000
     1   0 0 1     -0.000000      0.000000      0.000000

     2   2 0 0    -35.237770      0.000000    164.888013
     2   1 1 0      0.000000      0.000000      0.000000
     2   1 0 1     -0.000000      0.000000      0.000000
     2   0 2 0    -35.237770      0.000000    164.888013
     2   0 1 1      0.000000      0.000000      0.000000
     2   0 0 2    -35.237770      0.000000    164.888017


 Parallel integral file used     192 records with       0 large values

                   NWChem Extensible Many-Electron Theory Module
                   ---------------------------------------------

              ======================================================
                   This portion of the program was automatically
                  generated by a Tensor Contraction Engine (TCE).
                  The development of this portion of the program
                 and TCE was supported by US Department of Energy,
                Office of Science, Office of Basic Energy Science.
                      TCE is a product of Battelle and PNNL.
              Please cite: S.Hirata, J.Phys.Chem.A 107, 9887 (2003).
              ======================================================

                            cubane CCSD/cc-pVDZ hessian


            General Information
            -------------------
      Number of processors :     1
         Wavefunction type : Restricted Hartree-Fock
          No. of electrons :    56
           Alpha electrons :    28
            Beta electrons :    28
           No. of orbitals :   304
            Alpha orbitals :   152
             Beta orbitals :   152
        Alpha frozen cores :     8
         Beta frozen cores :     8
     Alpha frozen virtuals :     0
      Beta frozen virtuals :     0
         Spin multiplicity : singlet 
    Number of AO functions :   152
       Number of AO shells :    72
        Use of symmetry is : on 
      Symmetry adaption is : on 
         Schwarz screening : 0.10D-09

          Correlation Information
          -----------------------
          Calculation type : Coupled-cluster singles & doubles                           
   Perturbative correction : none                                                        
            Max iterations :      100
        Residual threshold : 0.10D-06
     T(0) DIIS level shift : 0.00D+00
     L(0) DIIS level shift : 0.00D+00
     T(1) DIIS level shift : 0.00D+00
     L(1) DIIS level shift : 0.00D+00
     T(R) DIIS level shift : 0.00D+00
     T(I) DIIS level shift : 0.00D+00
   CC-T/L Amplitude update :  5-th order DIIS
                I/O scheme : Global Array Library
        L-threshold :  0.10D-06
        EOM-threshold :  0.10D-06
 no EOMCCSD initial starts read in
 TCE RESTART OPTIONS
 READ_INT:   F
 WRITE_INT:  F
 READ_TA:    F
 WRITE_TA:   F
 READ_XA:    F
 WRITE_XA:   F
 READ_IN3:   F
 WRITE_IN3:  F
 SLICE:      F
 D4D5:       F

            Memory Information
            ------------------
          Available GA space size is     262120896 doubles
          Available MA space size is      52421668 doubles

 Maximum block size        32 doubles

 tile_dim =     17

 Block   Spin    Irrep     Size     Offset   Alpha
 -------------------------------------------------
   1    alpha     ag     4 doubles       0       1
   2    alpha     au     1 doubles       4       2
   3    alpha     b1g    2 doubles       5       3
   4    alpha     b1u    3 doubles       7       4
   5    alpha     b2g    2 doubles      10       5
   6    alpha     b2u    3 doubles      12       6
   7    alpha     b3g    2 doubles      15       7
   8    alpha     b3u    3 doubles      17       8
   9    beta      ag     4 doubles      20       1
  10    beta      au     1 doubles      24       2
  11    beta      b1g    2 doubles      25       3
  12    beta      b1u    3 doubles      27       4
  13    beta      b2g    2 doubles      30       5
  14    beta      b2u    3 doubles      32       6
  15    beta      b3g    2 doubles      35       7
  16    beta      b3u    3 doubles      37       8
  17    alpha     ag    14 doubles      40      17
  18    alpha     au    17 doubles      54      18
  19    alpha     b1g   16 doubles      71      19
  20    alpha     b1u   15 doubles      87      20
  21    alpha     b2g   16 doubles     102      21
  22    alpha     b2u   15 doubles     118      22
  23    alpha     b3g   16 doubles     133      23
  24    alpha     b3u   15 doubles     149      24
  25    beta      ag    14 doubles     164      17
  26    beta      au    17 doubles     178      18
  27    beta      b1g   16 doubles     195      19
  28    beta      b1u   15 doubles     211      20
  29    beta      b2g   16 doubles     226      21
  30    beta      b2u   15 doubles     242      22
  31    beta      b3g   16 doubles     257      23
  32    beta      b3u   15 doubles     273      24

 Global array virtual files algorithm will be used

 Parallel file system coherency ......... OK

 Integral file          = ./cubane.aoints.0
 Record size in doubles =  65536        No. of integs per rec  =  43688
 Max. records in memory =    341        Max. records in file   = 753702
 No. of bits per label  =      8        No. of bits per value  =     64


 #quartets = 3.417D+06 #integrals = 6.285D+07 #direct =  0.0% #cached =100.0%


 Fock matrix recomputed
 1-e file size   =             2592
 1-e file name   = ./cubane.f1         
 Cpu & wall time / sec           14.4           14.7
 4-electron integrals stored in orbital form

 v2    file size   =          9597934
 4-index algorithm nr.   5 is used
 imaxsize =       30
 imaxsize ichop =        0
 2_EL_BATCH AND COEFF MATRIX
 size_ic              2371843
 size_icc                  561
 tile_dim                   17
 max_na                   33
 INTERMEDIATE FILES
 size_4af            192709924
 size_3a1mf            303849216
 size_2a2mf            157699520
 size_1a3mf            248647680
 size_2e              9597934
 before sf_create
 after sf_create
 STEP2 4index
 STEP3 4index
 STEP3 test
 STEP4 4index
 STEP5 4index
 DONE --- DONE ---- DONE ---- DONE
 Cpu & wall time / sec          244.5          183.7
 T1-number-of-tasks                    8

 t1 file size   =              304
 t1 file name   = ./cubane.t1         
 t1 file handle =       -998
 T2-number-of-boxes                  688

 t2 file size   =          1042096
 t2 file name   = ./cubane.t2         
 t2 file handle =       -996

 CCSD iterations
 -----------------------------------------------------------------
 Iter          Residuum       Correlation     Cpu    Wall    V2*C2
 -----------------------------------------------------------------
    1   0.2546865509520  -1.0714565209323    12.6     9.8     2.5
    2   0.0708055758798  -1.1008479065823    13.0    10.3     2.6
    3   0.0273572854811  -1.1235416971237    12.5    10.1     2.4
    4   0.0119340593514  -1.1274266755214    12.8    10.0     2.3
    5   0.0056752977383  -1.1294414181584    12.6     9.8     2.4
 MICROCYCLE DIIS UPDATE:                    5                    5
    6   0.0013170169221  -1.1305065831219    13.0    11.9     2.3
    7   0.0004894143327  -1.1307235025031    12.3    10.5     2.3
    8   0.0002506106950  -1.1307094641121    12.1     9.0     2.3
    9   0.0001200861297  -1.1307126699964    12.2     9.2     2.3
   10   0.0000656884900  -1.1307148365044    12.4     9.3     2.3
 MICROCYCLE DIIS UPDATE:                   10                    5
   11   0.0000118015998  -1.1307162043286    12.6     9.1     2.3
   12   0.0000043205869  -1.1307180052026    12.0     9.0     2.3
   13   0.0000018573948  -1.1307186456433    12.4     9.1     2.4
   14   0.0000008986263  -1.1307187969734    11.9     9.1     2.2
   15   0.0000004371626  -1.1307188613713    12.5     9.3     2.5
 MICROCYCLE DIIS UPDATE:                   15                    5
   16   0.0000001255657  -1.1307188999779    12.6     9.2     2.4
   17   0.0000000481132  -1.1307189107945    12.6     9.2     2.4
 -----------------------------------------------------------------
 Iterations converged
 CCSD correlation energy / hartree =        -1.130718910794458
 CCSD total energy / hartree       =      -308.543106310875601

 Singles contributions

 Doubles contributions

------------------------------------------------------------
EAF file 0: "./cubane.aoints.0" size=575668224 bytes
------------------------------------------------------------
               write      read    awrite     aread      wait
               -----      ----    ------     -----      ----
     calls:     1098         0         0         0         0
   data(b): 5.76e+08  0.00e+00  0.00e+00  0.00e+00
   time(s): 0.00e+00  0.00e+00  0.00e+00  0.00e+00  0.00e+00
rate(mb/s): 0.00e+00  0.00e+00
------------------------------------------------------------


 Parallel integral file used    1439 records with       0 large values


 Saving state for tce with suffix hess
        ./cubane.movecs

  
 initial hessian

 zero matrix

  
 atom:   8 xyz: 1(+) wall time:     367.7      date:  Sun May  8 12:40:40 2016

                         NWChem Numerical Gradients Module
                         ---------------------------------


 No. of totally-symmetric internal modes =  24

                                 NWChem SCF Module
                                 -----------------


                            cubane CCSD/cc-pVDZ hessian



  ao basis        = "ao basis"
  functions       =   152
  atoms           =    16
  closed shells   =    28
  open shells     =     0
  charge          =   0.00
  wavefunction    = RHF 
  input vectors   = ./cubane.movecs
  output vectors  = ./cubane.movecs
  use symmetry    = F
  symmetry adapt  = F


 Forming initial guess at     367.9s


 Starting SCF solution at     367.9s



       Final RHF  results 
       ------------------ 

         Total SCF energy =   -307.412390970082
      One-electron energy =  -1138.422656684558
      Two-electron energy =    466.373419107399
 Nuclear repulsion energy =    364.636846607077

        Time for solution =     16.1s


                   NWChem Extensible Many-Electron Theory Module
                   ---------------------------------------------

              ======================================================
                   This portion of the program was automatically
                  generated by a Tensor Contraction Engine (TCE).
                  The development of this portion of the program
                 and TCE was supported by US Department of Energy,
                Office of Science, Office of Basic Energy Science.
                      TCE is a product of Battelle and PNNL.
              Please cite: S.Hirata, J.Phys.Chem.A 107, 9887 (2003).
              ======================================================

                            cubane CCSD/cc-pVDZ hessian


        L-threshold :  0.10D-06
        EOM-threshold :  0.10D-06
 no EOMCCSD initial starts read in
 TCE RESTART OPTIONS
 READ_INT:   F
 WRITE_INT:  F
 READ_TA:    F
 WRITE_TA:   F
 READ_XA:    F
 WRITE_XA:   F
 READ_IN3:   F
 WRITE_IN3:  F
 SLICE:      F
 D4D5:       F


 tile_dim =     31
 4-electron integrals stored in orbital form

 v2    file size   =         83466455
 4-index algorithm nr.   5 is used
 imaxsize =       30
 imaxsize ichop =        0
 2_EL_BATCH AND COEFF MATRIX
 size_ic              2371843
 size_icc                 1023
 tile_dim                   31
 max_na                   33
 INTERMEDIATE FILES
 size_4af            192709924
 size_3a1mf            303849216
 size_2a2mf            173386180
 size_1a3mf            273381120
 size_2e             83466455
 before sf_create
 after sf_create
 STEP2 4index
 STEP3 4index
 STEP3 test
 STEP4 4index
 STEP5 4index
 DONE --- DONE ---- DONE ---- DONE
 Cpu & wall time / sec          251.6          254.5
 T1-number-of-tasks                    4
 T2-number-of-boxes                   26

 CCSD iterations
 -----------------------------------------------------------------
 Iter          Residuum       Correlation     Cpu    Wall    V2*C2
 -----------------------------------------------------------------
    1   0.2546854158594  -1.0714513587842    71.8    30.9    16.5
    2   0.0708044355391  -1.1008435609302    72.0    32.6    16.7
    3   0.0273566299327  -1.1235366982373    71.6    35.1    16.7
    4   0.0119337373117  -1.1274215804033    71.7    31.8    16.4
    5   0.0056751329141  -1.1294362250720    71.1    30.1    16.4
 MICROCYCLE DIIS UPDATE:                    5                    5
    6   0.0013186566149  -1.1305245329645    71.6    30.4    16.6
    7   0.0004923386923  -1.1307174495890    71.9    29.8    16.5
    8   0.0002519886514  -1.1307053260115    70.2    29.3    16.4
    9   0.0001205525966  -1.1307075271763    70.4    29.7    16.3
   10   0.0000659166716  -1.1307096630803    70.5    31.4    16.4
 MICROCYCLE DIIS UPDATE:                   10                    5
   11   0.0000118941536  -1.1307109112857    70.1    29.3    16.2
   12   0.0000043709731  -1.1307127471076    70.8    31.1    16.8
   13   0.0000018689729  -1.1307133821099    70.4    29.8    16.3
   14   0.0000008940679  -1.1307135376816    69.4    29.0    16.2
   15   0.0000004321492  -1.1307136023700    70.1    29.5    16.5
 MICROCYCLE DIIS UPDATE:                   15                    5
   16   0.0000001261220  -1.1307136426520    70.6    30.2    16.4
   17   0.0000000487820  -1.1307136519054    69.9    29.6    16.4
 -----------------------------------------------------------------
 Iterations converged
 CCSD correlation energy / hartree =        -1.130713651905446
 CCSD total energy / hartree       =      -308.543104621987595

 Singles contributions

 Doubles contributions
 Reference energy        -308.54310462

 Finite difference step  1.00000D-02
 Use five point formula F

                                 NWChem SCF Module
                                 -----------------


                            cubane CCSD/cc-pVDZ hessian



  ao basis        = "ao basis"
  functions       =   152
  atoms           =    16
  closed shells   =    28
  open shells     =     0
  charge          =   0.00
  wavefunction    = RHF 
  input vectors   = ./cubane.movecs
  output vectors  = ./cubane.movecs
  use symmetry    = F
  symmetry adapt  = F


 Forming initial guess at    1177.9s


 Starting SCF solution at    1177.9s



       Final RHF  results 
       ------------------ 

         Total SCF energy =   -307.412330960051
      One-electron energy =  -1138.390331992345
      Two-electron energy =    466.357373645001
 Nuclear repulsion energy =    364.620627387293

        Time for solution =     17.4s


                   NWChem Extensible Many-Electron Theory Module
                   ---------------------------------------------

              ======================================================
                   This portion of the program was automatically
                  generated by a Tensor Contraction Engine (TCE).
                  The development of this portion of the program
                 and TCE was supported by US Department of Energy,
                Office of Science, Office of Basic Energy Science.
                      TCE is a product of Battelle and PNNL.
              Please cite: S.Hirata, J.Phys.Chem.A 107, 9887 (2003).
              ======================================================

                            cubane CCSD/cc-pVDZ hessian


        L-threshold :  0.10D-06
        EOM-threshold :  0.10D-06
 no EOMCCSD initial starts read in
 TCE RESTART OPTIONS
 READ_INT:   F
 WRITE_INT:  F
 READ_TA:    F
 WRITE_TA:   F
 READ_XA:    F
 WRITE_XA:   F
 READ_IN3:   F
 WRITE_IN3:  F
 SLICE:      F
 D4D5:       F


 tile_dim =     31
 4-electron integrals stored in orbital form

 v2    file size   =         83466455
 4-index algorithm nr.   5 is used
 imaxsize =       30
 imaxsize ichop =        0
 2_EL_BATCH AND COEFF MATRIX
 size_ic              2371843
 size_icc                 1023
 tile_dim                   31
 max_na                   33
 INTERMEDIATE FILES
 size_4af            192709924
 size_3a1mf            303849216
 size_2a2mf            173386180
 size_1a3mf            273381120
 size_2e             83466455
 before sf_create
 after sf_create
 STEP2 4index
 STEP3 4index
 STEP3 test
 STEP4 4index
 STEP5 4index
 DONE --- DONE ---- DONE ---- DONE
 Cpu & wall time / sec          243.3          192.7
 T1-number-of-tasks                    4
 T2-number-of-boxes                   26

 CCSD iterations
 -----------------------------------------------------------------
 Iter          Residuum       Correlation     Cpu    Wall    V2*C2
 -----------------------------------------------------------------
    1   0.2546973046871  -1.0715036280544    70.3    31.2    16.4
    2   0.0708159953345  -1.1008872265027    70.3    33.0    16.3
    3   0.0273632192601  -1.1235870152327    70.5    29.1    16.2
    4   0.0119369751214  -1.1274728563513    69.9    29.0    16.2
    5   0.0056767739266  -1.1294884883108    70.0    29.5    16.3
 MICROCYCLE DIIS UPDATE:                    5                    5
    6   0.0013192686665  -1.1305774067910    69.8    29.1    16.4
    7   0.0004925925507  -1.1307703858772    71.6    30.7    16.8
    8   0.0002521519101  -1.1307582474186    69.3    29.5    16.3
    9   0.0001206296369  -1.1307604485838    70.6    31.4    16.7
   10   0.0000659638388  -1.1307625854101    70.5    31.5    16.5
 MICROCYCLE DIIS UPDATE:                   10                    5
   11   0.0000119017728  -1.1307638354606    70.2    29.7    16.3
   12   0.0000043743686  -1.1307656712395    70.7    32.6    16.6
   13   0.0000018705158  -1.1307663070471    69.9    30.9    16.5
   14   0.0000008949318  -1.1307664627521    70.5    31.0    16.7
   15   0.0000004325940  -1.1307665275268    70.1    30.9    16.5
 MICROCYCLE DIIS UPDATE:                   15                    5
   16   0.0000001262665  -1.1307665678596    71.0    33.1    16.7
   17   0.0000000488491  -1.1307665771334    70.1    30.6    16.3
 -----------------------------------------------------------------
 Iterations converged
 CCSD correlation energy / hartree =        -1.130766577133379
 CCSD total energy / hartree       =      -308.543097537184281

 Singles contributions

 Doubles contributions
 step     1 energy        -308.54309754
                                 NWChem SCF Module
                                 -----------------


                            cubane CCSD/cc-pVDZ hessian



  ao basis        = "ao basis"
  functions       =   152
  atoms           =    16
  closed shells   =    28
  open shells     =     0
  charge          =   0.00
  wavefunction    = RHF 
  input vectors   = ./cubane.movecs
  output vectors  = ./cubane.movecs
  use symmetry    = F
  symmetry adapt  = F


 Forming initial guess at    1930.6s


 Starting SCF solution at    1930.7s



       Final RHF  results 
       ------------------ 

         Total SCF energy =   -307.412436136818
      One-electron energy =  -1138.454944025041
      Two-electron energy =    466.389442062880
 Nuclear repulsion energy =    364.653065825344

        Time for solution =     17.7s


                   NWChem Extensible Many-Electron Theory Module
                   ---------------------------------------------

              ======================================================
                   This portion of the program was automatically
                  generated by a Tensor Contraction Engine (TCE).
                  The development of this portion of the program
                 and TCE was supported by US Department of Energy,
                Office of Science, Office of Basic Energy Science.
[...]
           6     0.02327     0.14278     0.10682     0.22154    -0.12161     0.24490
           7     0.12794    -0.00278    -0.17311     0.01581    -0.14546     0.06286
           8     0.13906    -0.12035    -0.01458    -0.21750    -0.00452    -0.14921
           9     0.02327    -0.14278     0.10682    -0.22154     0.12161    -0.24490
          10    -0.12794    -0.00278    -0.17311     0.01581     0.14546    -0.06286
          11    -0.13906    -0.12035    -0.01458    -0.21750     0.00452     0.14921
          12     0.02327     0.14278    -0.10682     0.22154     0.12161    -0.24490
          13     0.12794    -0.00278     0.17311    -0.01581    -0.14546    -0.06286
          14    -0.13906     0.12035    -0.01458    -0.21750     0.00452    -0.14921
          15     0.02327    -0.14278    -0.10682     0.22154     0.12161     0.24490
          16    -0.12794    -0.00278     0.17311    -0.01581     0.14546     0.06286
          17     0.13906     0.12035    -0.01458    -0.21750    -0.00452     0.14921
          18     0.02327     0.14278     0.10682    -0.22154     0.12161     0.24490
          19     0.12794    -0.00278    -0.17311    -0.01581     0.14546     0.06286
          20     0.13906    -0.12035    -0.01458     0.21750     0.00452    -0.14921
          21     0.02327    -0.14278     0.10682     0.22154    -0.12161    -0.24490
          22    -0.12794    -0.00278    -0.17311    -0.01581    -0.14546    -0.06286
          23    -0.13906    -0.12035    -0.01458     0.21750    -0.00452     0.14921
          24     0.02327     0.14278    -0.10682    -0.22154    -0.12161    -0.24490
          25    -0.05407     0.00023    -0.03477     0.00909    -0.05526     0.02287
          26     0.06667    -0.07078     0.00122    -0.03186     0.00347     0.03917
          27    -0.00195     0.04977     0.07559     0.03468     0.06580    -0.03347
          28     0.05407     0.00023    -0.03477     0.00909     0.05526    -0.02287
          29    -0.06667    -0.07078     0.00122    -0.03186    -0.00347    -0.03917
          30    -0.00195    -0.04977    -0.07559    -0.03468     0.06580    -0.03347
          31    -0.05407     0.00023     0.03477     0.00909     0.05526    -0.02287
          32    -0.06667     0.07078     0.00122     0.03186     0.00347     0.03917
          33    -0.00195     0.04977    -0.07559     0.03468    -0.06580     0.03347
          34     0.05407     0.00023     0.03477     0.00909    -0.05526     0.02287
          35     0.06667     0.07078     0.00122     0.03186    -0.00347    -0.03917
          36    -0.00195    -0.04977     0.07559    -0.03468    -0.06580     0.03347
          37    -0.05407     0.00023    -0.03477    -0.00909     0.05526     0.02287
          38     0.06667    -0.07078     0.00122     0.03186    -0.00347     0.03917
          39    -0.00195     0.04977     0.07559    -0.03468    -0.06580    -0.03347
          40     0.05407     0.00023    -0.03477    -0.00909    -0.05526    -0.02287
          41    -0.06667    -0.07078     0.00122     0.03186     0.00347    -0.03917
          42    -0.00195    -0.04977    -0.07559     0.03468    -0.06580    -0.03347
          43    -0.05407     0.00023     0.03477    -0.00909    -0.05526    -0.02287
          44    -0.06667     0.07078     0.00122    -0.03186    -0.00347     0.03917
          45    -0.00195     0.04977    -0.07559    -0.03468     0.06580     0.03347
          46     0.05407     0.00023     0.03477    -0.00909     0.05526     0.02287
          47     0.06667     0.07078     0.00122    -0.03186     0.00347    -0.03917
          48    -0.00195    -0.04977     0.07559     0.03468     0.06580     0.03347

                   31          32          33          34          35          36
 
 P.Frequency     1157.54     1161.84     1174.10     1188.89     1240.53     1241.86
 
           1     0.21849     0.07127    -0.23050     0.23672    -0.10113     0.09520
           2    -0.00409    -0.15667     0.20936    -0.15459    -0.06173    -0.24047
           3    -0.22038     0.08961     0.01366    -0.03620     0.24179     0.05643
           4     0.21849    -0.07127     0.23050    -0.23672     0.10113     0.09520
           5    -0.00409     0.15667    -0.20936     0.15459     0.06173    -0.24047
           6     0.22038     0.08961     0.01366    -0.03620     0.24179    -0.05643
           7    -0.21849    -0.07127    -0.23050    -0.23672    -0.10113    -0.09520
           8    -0.00409    -0.15667    -0.20936    -0.15459     0.06173    -0.24047
           9     0.22038    -0.08961     0.01366     0.03620     0.24179    -0.05643
          10    -0.21849     0.07127     0.23050     0.23672     0.10113    -0.09520
          11    -0.00409     0.15667     0.20936     0.15459    -0.06173    -0.24047
          12    -0.22038    -0.08961     0.01366     0.03620     0.24179     0.05643
          13    -0.21849    -0.07127     0.23050     0.23672    -0.10113     0.09520
          14     0.00409     0.15667    -0.20936    -0.15459    -0.06173    -0.24047
          15     0.22038    -0.08961    -0.01366    -0.03620     0.24179     0.05643
          16    -0.21849     0.07127    -0.23050    -0.23672     0.10113     0.09520
          17     0.00409    -0.15667     0.20936     0.15459     0.06173    -0.24047
          18    -0.22038    -0.08961    -0.01366    -0.03620     0.24179    -0.05643
          19     0.21849     0.07127     0.23050    -0.23672    -0.10113    -0.09520
          20     0.00409     0.15667     0.20936    -0.15459     0.06173    -0.24047
          21    -0.22038     0.08961    -0.01366     0.03620     0.24179    -0.05643
          22     0.21849    -0.07127    -0.23050     0.23672     0.10113    -0.09520
          23     0.00409    -0.15667    -0.20936     0.15459    -0.06173    -0.24047
          24     0.22038     0.08961    -0.01366     0.03620     0.24179     0.05643
          25    -0.03550    -0.03441     0.03555    -0.03184     0.04966    -0.05085
          26    -0.01022     0.07065    -0.03112     0.04305     0.03807     0.02020
          27     0.03102    -0.03285    -0.00502     0.02693    -0.02031    -0.03922
          28    -0.03550     0.03441    -0.03555     0.03184    -0.04966    -0.05085
          29    -0.01022    -0.07065     0.03112    -0.04305    -0.03807     0.02020
          30    -0.03102    -0.03285    -0.00502     0.02693    -0.02031     0.03922
          31     0.03550     0.03441     0.03555     0.03184     0.04966     0.05085
          32    -0.01022     0.07065     0.03112     0.04305    -0.03807     0.02020
          33    -0.03102     0.03285    -0.00502    -0.02693    -0.02031     0.03922
          34     0.03550    -0.03441    -0.03555    -0.03184    -0.04966     0.05085
          35    -0.01022    -0.07065    -0.03112    -0.04305     0.03807     0.02020
          36     0.03102     0.03285    -0.00502    -0.02693    -0.02031    -0.03922
          37     0.03550     0.03441    -0.03555    -0.03184     0.04966    -0.05085
          38     0.01022    -0.07065     0.03112     0.04305     0.03807     0.02020
          39    -0.03102     0.03285     0.00502     0.02693    -0.02031    -0.03922
          40     0.03550    -0.03441     0.03555     0.03184    -0.04966    -0.05085
          41     0.01022     0.07065    -0.03112    -0.04305    -0.03807     0.02020
          42     0.03102     0.03285     0.00502     0.02693    -0.02031     0.03922
          43    -0.03550    -0.03441    -0.03555     0.03184     0.04966     0.05085
          44     0.01022    -0.07065    -0.03112     0.04305    -0.03807     0.02020
          45     0.03102    -0.03285     0.00502    -0.02693    -0.02031     0.03922
          46    -0.03550     0.03441     0.03555    -0.03184    -0.04966     0.05085
          47     0.01022     0.07065     0.03112    -0.04305     0.03807     0.02020
          48    -0.03102    -0.03285     0.00502    -0.02693    -0.02031    -0.03922

                   37          38          39          40          41          42
 
 P.Frequency     1242.37     1247.04     1266.66     1287.13     3115.78     3138.55
 
           1    -0.10419    -0.13492     0.15599     0.24953    -0.19334    -0.19627
           2    -0.13712     0.15101    -0.11052    -0.08305    -0.18917    -0.19471
           3     0.15238    -0.10270    -0.12984    -0.10426    -0.19962    -0.19433
           4     0.10419    -0.13492     0.15599     0.24953    -0.19334    -0.19627
           5     0.13712     0.15101    -0.11052    -0.08305    -0.18917    -0.19471
           6     0.15238     0.10270     0.12984     0.10426     0.19962     0.19433
           7    -0.10419     0.13492     0.15599     0.24953     0.19334    -0.19627
           8     0.13712     0.15101     0.11052     0.08305    -0.18917     0.19471
           9     0.15238     0.10270    -0.12984    -0.10426     0.19962    -0.19433
          10     0.10419     0.13492     0.15599     0.24953     0.19334    -0.19627
          11    -0.13712     0.15101     0.11052     0.08305    -0.18917     0.19471
          12     0.15238    -0.10270     0.12984     0.10426    -0.19962     0.19433
          13     0.10419     0.13492    -0.15599     0.24953    -0.19334     0.19627
          14     0.13712    -0.15101     0.11052    -0.08305    -0.18917     0.19471
          15    -0.15238     0.10270     0.12984    -0.10426    -0.19962     0.19433
          16    -0.10419     0.13492    -0.15599     0.24953    -0.19334     0.19627
          17    -0.13712    -0.15101     0.11052    -0.08305    -0.18917     0.19471
          18    -0.15238    -0.10270    -0.12984     0.10426     0.19962    -0.19433
          19     0.10419    -0.13492    -0.15599     0.24953     0.19334     0.19627
          20    -0.13712    -0.15101    -0.11052     0.08305    -0.18917    -0.19471
          21    -0.15238    -0.10270     0.12984    -0.10426     0.19962     0.19433
          22    -0.10419    -0.13492    -0.15599     0.24953     0.19334     0.19627
          23     0.13712    -0.15101    -0.11052     0.08305    -0.18917    -0.19471
          24    -0.15238     0.10270    -0.12984     0.10426    -0.19962    -0.19433
          25    -0.00296     0.00403    -0.07698    -0.02096     0.01815     0.01734
          26     0.00203    -0.07791    -0.00208     0.03603     0.01589     0.01623
          27    -0.07722    -0.00086     0.00085     0.04425     0.01852     0.01617
          28     0.00296     0.00403    -0.07698    -0.02096     0.01815     0.01734
          29    -0.00203    -0.07791    -0.00208     0.03603     0.01589     0.01623
          30    -0.07722     0.00086    -0.00085    -0.04425    -0.01852    -0.01617
          31    -0.00296    -0.00403    -0.07698    -0.02096    -0.01815     0.01734
          32    -0.00203    -0.07791     0.00208    -0.03603     0.01589    -0.01623
          33    -0.07722     0.00086     0.00085     0.04425    -0.01852     0.01617
          34     0.00296    -0.00403    -0.07698    -0.02096    -0.01815     0.01734
          35     0.00203    -0.07791     0.00208    -0.03603     0.01589    -0.01623
          36    -0.07722    -0.00086    -0.00085    -0.04425     0.01852    -0.01617
          37     0.00296    -0.00403     0.07698    -0.02096     0.01815    -0.01734
          38    -0.00203     0.07791     0.00208     0.03603     0.01589    -0.01623
          39     0.07722     0.00086    -0.00085     0.04425     0.01852    -0.01617
          40    -0.00296    -0.00403     0.07698    -0.02096     0.01815    -0.01734
          41     0.00203     0.07791     0.00208     0.03603     0.01589    -0.01623
          42     0.07722    -0.00086     0.00085    -0.04425    -0.01852     0.01617
          43     0.00296     0.00403     0.07698    -0.02096    -0.01815    -0.01734
          44     0.00203     0.07791    -0.00208    -0.03603     0.01589     0.01623
          45     0.07722    -0.00086    -0.00085     0.04425    -0.01852    -0.01617
          46    -0.00296     0.00403     0.07698    -0.02096    -0.01815    -0.01734
          47    -0.00203     0.07791    -0.00208    -0.03603     0.01589     0.01623
          48     0.07722     0.00086     0.00085    -0.04425     0.01852     0.01617

                   43          44          45          46          47          48
 
 P.Frequency     3151.23     3152.39     3154.97     3161.16     3169.24     3191.45
 
           1     0.19257    -0.19145     0.19006     0.19349     0.19266     0.19848
           2     0.19525    -0.19582     0.19504     0.19369     0.19371     0.19179
           3     0.19321    -0.19538     0.19716     0.19421     0.19418     0.19018
           4    -0.19257     0.19145     0.19006    -0.19349    -0.19266     0.19848
           5    -0.19525     0.19582     0.19504    -0.19369    -0.19371     0.19179
           6     0.19321    -0.19538    -0.19716     0.19421     0.19418    -0.19018
           7    -0.19257    -0.19145    -0.19006     0.19349    -0.19266     0.19848
           8     0.19525     0.19582     0.19504    -0.19369     0.19371    -0.19179
           9    -0.19321    -0.19538    -0.19716     0.19421    -0.19418     0.19018
          10     0.19257     0.19145    -0.19006    -0.19349     0.19266     0.19848
          11    -0.19525    -0.19582     0.19504     0.19369    -0.19371    -0.19179
          12    -0.19321    -0.19538     0.19716     0.19421    -0.19418    -0.19018
          13     0.19257     0.19145    -0.19006     0.19349    -0.19266     0.19848
          14     0.19525     0.19582    -0.19504     0.19369    -0.19371     0.19179
          15     0.19321     0.19538    -0.19716     0.19421    -0.19418     0.19018
          16    -0.19257    -0.19145    -0.19006    -0.19349     0.19266     0.19848
          17    -0.19525    -0.19582    -0.19504    -0.19369     0.19371     0.19179
          18     0.19321     0.19538     0.19716     0.19421    -0.19418    -0.19018
          19    -0.19257     0.19145     0.19006     0.19349     0.19266     0.19848
          20     0.19525    -0.19582    -0.19504    -0.19369    -0.19371    -0.19179
          21    -0.19321     0.19538     0.19716     0.19421     0.19418     0.19018
          22     0.19257    -0.19145     0.19006    -0.19349    -0.19266     0.19848
          23    -0.19525     0.19582    -0.19504     0.19369     0.19371    -0.19179
          24    -0.19321     0.19538    -0.19716     0.19421     0.19418    -0.19018
          25    -0.01762     0.01664    -0.01656    -0.01859    -0.01770    -0.01667
          26    -0.01815     0.01730    -0.01838    -0.01850    -0.01811    -0.01874
          27    -0.01803     0.01834    -0.01764    -0.01631    -0.01842    -0.01877
          28     0.01762    -0.01664    -0.01656     0.01859     0.01770    -0.01667
          29     0.01815    -0.01730    -0.01838     0.01850     0.01811    -0.01874
          30    -0.01803     0.01834     0.01764    -0.01631    -0.01842     0.01877
          31     0.01762     0.01664     0.01656    -0.01859     0.01770    -0.01667
          32    -0.01815    -0.01730    -0.01838     0.01850    -0.01811     0.01874
          33     0.01803     0.01834     0.01764    -0.01631     0.01842    -0.01877
          34    -0.01762    -0.01664     0.01656     0.01859    -0.01770    -0.01667
          35     0.01815     0.01730    -0.01838    -0.01850     0.01811     0.01874
          36     0.01803     0.01834    -0.01764    -0.01631     0.01842     0.01877
          37    -0.01762    -0.01664     0.01656    -0.01859     0.01770    -0.01667
          38    -0.01815    -0.01730     0.01838    -0.01850     0.01811    -0.01874
          39    -0.01803    -0.01834     0.01764    -0.01631     0.01842    -0.01877
          40     0.01762     0.01664     0.01656     0.01859    -0.01770    -0.01667
          41     0.01815     0.01730     0.01838     0.01850    -0.01811    -0.01874
          42    -0.01803    -0.01834    -0.01764    -0.01631     0.01842     0.01877
          43     0.01762    -0.01664    -0.01656    -0.01859    -0.01770    -0.01667
          44    -0.01815     0.01730     0.01838     0.01850     0.01811     0.01874
          45     0.01803    -0.01834    -0.01764    -0.01631    -0.01842    -0.01877
          46    -0.01762     0.01664    -0.01656     0.01859     0.01770    -0.01667
          47     0.01815    -0.01730     0.01838    -0.01850    -0.01811     0.01874
          48     0.01803    -0.01834     0.01764    -0.01631    -0.01842     0.01877
 vib:animation  F

 Task  times  cpu:  1181217.6s     wall:   666054.7s
 Summary of allocated global arrays
-----------------------------------
  No active global arrays



                         GA Statistics for process    0
                         ------------------------------

       create   destroy   get      put      acc     scatter   gather  read&inc
calls: 1.57e+06 1.57e+06 1.15e+08 4.25e+06 1.72e+07    0        0     2.27e+07 
number of processes/call 1.00e+00 1.00e+00 1.00e+00 0.00e+00 0.00e+00
bytes total:             3.62e+14 7.23e+12 3.50e+13 0.00e+00 0.00e+00 1.82e+08
bytes remote:            0.00e+00 0.00e+00 0.00e+00 0.00e+00 0.00e+00 0.00e+00
Max memory consumed for GA by this process: 1873798856 bytes
MA_summarize_allocated_blocks: starting scan ...
MA_summarize_allocated_blocks: scan completed: 0 heap blocks, 0 stack blocks
MA usage statistics:

	allocation statistics:
					      heap	     stack
					      ----	     -----
	current number of blocks	         0	         0
	maximum number of blocks	        18	        44
	current total bytes		         0	         0
	maximum total bytes		 178834768	  47092696
	maximum total K-bytes		    178835	     47093
	maximum total M-bytes		       179	        48


                                NWChem Input Module
                                -------------------





                                     CITATION
                                     --------
                Please cite the following reference when publishing
                           results obtained with NWChem:

                 M. Valiev, E.J. Bylaska, N. Govind, K. Kowalski,
              T.P. Straatsma, H.J.J. van Dam, D. Wang, J. Nieplocha,
                        E. Apra, T.L. Windus, W.A. de Jong
                 "NWChem: a comprehensive and scalable open-source
                  solution for large scale molecular simulations"
                      Comput. Phys. Commun. 181, 1477 (2010)
                           doi:10.1016/j.cpc.2010.04.018

                                      AUTHORS
                                      -------
          E. Apra, E. J. Bylaska, W. A. de Jong, N. Govind, K. Kowalski,
       T. P. Straatsma, M. Valiev, H. J. J. van Dam, D. Wang, T. L. Windus,
        J. Hammond, J. Autschbach, K. Bhaskaran-Nair, J. Brabec, K. Lopata,
       S. A. Fischer, S. Krishnamoorthy, W. Ma, M. Klemm, O. Villa, Y. Chen,
    V. Anisimov, F. Aquino, S. Hirata, M. T. Hackler, T. Risthaus, M. Malagoli,
       A. Marenich, A. Otero-de-la-Roza, J. Mullin, P. Nichols, R. Peverati,
     J. Pittner, Y. Zhao, P.-D. Fan, A. Fonari, M. Williamson, R. J. Harrison,
       J. R. Rehr, M. Dupuis, D. Silverstein, D. M. A. Smith, J. Nieplocha,
        V. Tipparaju, M. Krishnan, B. E. Van Kuiken, A. Vazquez-Mayagoitia,
        L. Jensen, M. Swart, Q. Wu, T. Van Voorhis, A. A. Auer, M. Nooijen,
      L. D. Crosby, E. Brown, G. Cisneros, G. I. Fann, H. Fruchtl, J. Garza,
        K. Hirao, R. A. Kendall, J. A. Nichols, K. Tsemekhman, K. Wolinski,
     J. Anchell, D. E. Bernholdt, P. Borowski, T. Clark, D. Clerc, H. Dachsel,
   M. J. O. Deegan, K. Dyall, D. Elwood, E. Glendening, M. Gutowski, A. C. Hess,
         J. Jaffe, B. G. Johnson, J. Ju, R. Kobayashi, R. Kutteh, Z. Lin,
   R. Littlefield, X. Long, B. Meng, T. Nakajima, S. Niu, L. Pollack, M. Rosing,
   K. Glaesemann, G. Sandrone, M. Stave, H. Taylor, G. Thomas, J. H. van Lenthe,
                               A. T. Wong, Z. Zhang.

 Total times  cpu:  1181217.7s     wall:   666054.8s
