 argument  1 = triplet.nw
                                         
                                         


              Northwest Computational Chemistry Package (NWChem) 6.8
              ------------------------------------------------------


                    Environmental Molecular Sciences Laboratory
                       Pacific Northwest National Laboratory
                                Richland, WA 99352

                              Copyright (c) 1994-2017
                       Pacific Northwest National Laboratory
                            Battelle Memorial Institute

             NWChem is an open-source computational chemistry package
                        distributed under the terms of the
                      Educational Community License (ECL) 2.0
             A copy of the license is included with this distribution
                              in the LICENSE.TXT file

                                  ACKNOWLEDGMENT
                                  --------------

            This software and its documentation were developed at the
            EMSL at Pacific Northwest National Laboratory, a multiprogram
            national laboratory, operated for the U.S. Department of Energy
            by Battelle under Contract Number DE-AC05-76RL01830. Support
            for this work was provided by the Department of Energy Office
            of Biological and Environmental Research, Office of Basic
            Energy Sciences, and the Office of Advanced Scientific Computing.


           Job information
           ---------------

    hostname        = vladimir-Kubuntu-16
    program         = nwchem
    date            = Sat Dec 21 13:07:36 2019

    compiled        = Wed_Aug_15_19:14:19_2018
    source          = /home/edo/debichem-team/nwchem/nwchem-6.8.1
    nwchem branch   = 6.8.1
    nwchem revision = v6.8-133-ge032219
    ga revision     = 5.6.5
    use scalapack   = T
    input           = triplet.nw
    prefix          = triplet.
    data base       = ./triplet.db
    status          = startup
    nproc           =        1
    time left       =     -1s



           Memory information
           ------------------

    heap     =   13107196 doubles =    100.0 Mbytes
    stack    =  131072001 doubles =   1000.0 Mbytes
    global   =  262144000 doubles =   2000.0 Mbytes (distinct from heap & stack)
    total    =  406323197 doubles =   3100.0 Mbytes
    verify   = yes
    hardfail = no 


           Directory information
           ---------------------

  0 permanent = .
  0 scratch   = .




                                NWChem Input Module
                                -------------------


             cubane T-biradical UHF/def2-SVP DFT geometry optimization
             ---------------------------------------------------------

 Scaling coordinates for geometry "geometry" by  1.889725989
 (inverse scale =  0.529177249)

 Turning off AUTOSYM since
 SYMMETRY directive was detected!


          ------
          auto-z
          ------


                             Geometry "geometry" -> ""
                             -------------------------

 Output coordinates in angstroms (scale by  1.889725989 to convert to a.u.)

  No.       Tag          Charge          X              Y              Z
 ---- ---------------- ---------- -------------- -------------- --------------
    1 H                    1.0000     2.04891114    -1.28385753     0.01452527
    2 C                    6.0000     1.07007002    -0.81239360    -0.05733771
    3 H                    1.0000     2.04891114     1.28385753     0.01452527
    4 C                    6.0000     1.07007002     0.81239360    -0.05733771
    5 H                    1.0000     0.00000000    -1.61019161    -2.01624113
    6 C                    6.0000     0.00000000    -1.32325628    -0.97149624
    7 H                    1.0000     0.00000000     1.61019161    -2.01624113
    8 C                    6.0000     0.00000000     1.32325628    -0.97149624
    9 H                    1.0000     0.00000000    -1.43928333     1.94870807
   10 C                    6.0000     0.00000000    -0.77017176     1.09258543
   11 H                    1.0000     0.00000000     1.43928333     1.94870807
   12 C                    6.0000     0.00000000     0.77017176     1.09258543
   13 H                    1.0000    -2.04891114    -1.28385753     0.01452527
   14 C                    6.0000    -1.07007002    -0.81239360    -0.05733771
   15 H                    1.0000    -2.04891114     1.28385753     0.01452527
   16 C                    6.0000    -1.07007002     0.81239360    -0.05733771

      Atomic Mass 
      ----------- 

      H                  1.007825
      C                 12.000000


 Effective nuclear repulsion energy (a.u.)     359.0052734129

            Nuclear Dipole moment (a.u.) 
            ----------------------------
        X                 Y               Z
 ---------------- ---------------- ----------------
     0.0000000000     0.0000000000    -0.0000000000

      Symmetry information
      --------------------

 Group name             C2v       
 Group number             16
 Group order               4
 No. of unique centers     6

      Symmetry unique atoms

     1    2    5    6    9   10



                                Z-matrix (autoz)
                                -------- 

 Units are Angstrom for bonds and degrees for angles

      Type          Name      I     J     K     L     M      Value
      ----------- --------  ----- ----- ----- ----- ----- ----------
    1 Stretch                  1     2                       1.08884
    2 Stretch                  2     4                       1.62479
    3 Stretch                  2     6                       1.49724
    4 Stretch                  2    10                       1.57135
    5 Stretch                  3     4                       1.08884
    6 Stretch                  4     8                       1.49724
    7 Stretch                  4    12                       1.57135
    8 Stretch                  5     6                       1.08343
    9 Stretch                  6    14                       1.49724
   10 Stretch                  7     8                       1.08343
   11 Stretch                  8    16                       1.49724
   12 Stretch                  9    10                       1.08658
   13 Stretch                 10    12                       1.54034
   14 Stretch                 10    14                       1.57135
   15 Stretch                 11    12                       1.08658
   16 Stretch                 12    16                       1.57135
   17 Stretch                 13    14                       1.08884
   18 Stretch                 14    16                       1.62479
   19 Stretch                 15    16                       1.08884
   20 Bend                     1     2     4               115.65788
   21 Bend                     1     2     6               122.34746
   22 Bend                     1     2    10               125.13645
   23 Bend                     2     4     3               115.65788
   24 Bend                     2     4     8               109.95023
   25 Bend                     2     4    12                88.46029
   26 Bend                     2     6     5               132.77542
   27 Bend                     2     6    14                91.23672
   28 Bend                     2    10     9               124.05898
   29 Bend                     2    10    12                91.53971
   30 Bend                     2    10    14                85.84142
   31 Bend                     3     4     8               122.34746
   32 Bend                     3     4    12               125.13645
   33 Bend                     4     2     6               109.95023
   34 Bend                     4     2    10                88.46029
   35 Bend                     4     8     7               132.77542
   36 Bend                     4     8    16                91.23672
   37 Bend                     4    12    10                91.53971
   38 Bend                     4    12    11               124.05898
   39 Bend                     4    12    16                85.84142
   40 Bend                     5     6    14               132.77542
   41 Bend                     6     2    10                88.23975
   42 Bend                     6    14    10                88.23975
   43 Bend                     6    14    13               122.34746
   44 Bend                     6    14    16               109.95023
   45 Bend                     7     8    16               132.77542
   46 Bend                     8     4    12                88.23975
   47 Bend                     8    16    12                88.23975
   48 Bend                     8    16    14               109.95023
   49 Bend                     8    16    15               122.34746
   50 Bend                     9    10    12               128.00978
   51 Bend                     9    10    14               124.05898
   52 Bend                    10    12    11               128.00978
   53 Bend                    10    12    16                91.53971
   54 Bend                    10    14    13               125.13645
   55 Bend                    10    14    16                88.46029
   56 Bend                    11    12    16               124.05898
   57 Bend                    12    10    14                91.53971
   58 Bend                    12    16    14                88.46029
   59 Bend                    12    16    15               125.13645
   60 Bend                    13    14    16               115.65788
   61 Bend                    14    16    15               115.65788
   62 Torsion                  1     2     4     3           0.00000
   63 Torsion                  1     2     4     8         143.69172
   64 Torsion                  1     2     4    12        -128.74104
   65 Torsion                  1     2     6     5         -48.06687
   66 Torsion                  1     2     6    14         150.95347
   67 Torsion                  1     2    10     9         -18.90400
   68 Torsion                  1     2    10    12         120.71381
   69 Torsion                  1     2    10    14        -147.85388
   70 Torsion                  2     4     8     7         -92.75127
   71 Torsion                  2     4     8    16          68.22839
   72 Torsion                  2     4    12    10           0.00000
   73 Torsion                  2     4    12    11         139.61781
   74 Torsion                  2     4    12    16         -91.43231
   75 Torsion                  2     6    14    10         -19.49328
   76 Torsion                  2     6    14    13        -150.95347
   77 Torsion                  2     6    14    16          68.22839
   78 Torsion                  2    10    12     4           0.00000
   79 Torsion                  2    10    12    11        -137.06004
   80 Torsion                  2    10    12    16          85.87992
   81 Torsion                  2    10    14     6          18.58562
   82 Torsion                  2    10    14    13         147.85388
   83 Torsion                  2    10    14    16         -91.43231
   84 Torsion                  3     4     2     6        -143.69172
   85 Torsion                  3     4     2    10         128.74104
   86 Torsion                  3     4     8     7          48.06687
   87 Torsion                  3     4     8    16        -150.95347
   88 Torsion                  3     4    12    10        -120.71381
   89 Torsion                  3     4    12    11          18.90400
   90 Torsion                  3     4    12    16         147.85388
   91 Torsion                  4     2     6     5          92.75127
   92 Torsion                  4     2     6    14         -68.22839
   93 Torsion                  4     2    10     9        -139.61781
   94 Torsion                  4     2    10    12           0.00000
   95 Torsion                  4     2    10    14          91.43231
   96 Torsion                  4     8    16    12          19.49328
   97 Torsion                  4     8    16    14         -68.22839
   98 Torsion                  4     8    16    15         150.95347
   99 Torsion                  4    12    10     9         137.06004
  100 Torsion                  4    12    10    14         -85.87992
  101 Torsion                  4    12    16     8         -18.58562
  102 Torsion                  4    12    16    14          91.43231
  103 Torsion                  4    12    16    15        -147.85388
  104 Torsion                  5     6     2    10        -179.52706
  105 Torsion                  5     6    14    10         179.52706
  106 Torsion                  5     6    14    13          48.06687
  107 Torsion                  5     6    14    16         -92.75127
  108 Torsion                  6     2     4     8           0.00000
  109 Torsion                  6     2     4    12          87.56723
  110 Torsion                  6     2    10     9         110.36426
  111 Torsion                  6     2    10    12        -110.01793
  112 Torsion                  6     2    10    14         -18.58562
  113 Torsion                  6    14    10     9        -110.36426
  114 Torsion                  6    14    10    12         110.01793
  115 Torsion                  6    14    16     8           0.00000
  116 Torsion                  6    14    16    12         -87.56723
  117 Torsion                  6    14    16    15         143.69172
  118 Torsion                  7     8     4    12         179.52706
  119 Torsion                  7     8    16    12        -179.52706
  120 Torsion                  7     8    16    14          92.75127
  121 Torsion                  7     8    16    15         -48.06687
  122 Torsion                  8     4     2    10         -87.56723
  123 Torsion                  8     4    12    10         110.01793
  124 Torsion                  8     4    12    11        -110.36426
  125 Torsion                  8     4    12    16          18.58562
  126 Torsion                  8    16    12    10        -110.01793
  127 Torsion                  8    16    12    11         110.36426
  128 Torsion                  8    16    14    10          87.56723
  129 Torsion                  8    16    14    13        -143.69172
  130 Torsion                  9    10    12    11           0.00000
  131 Torsion                  9    10    12    16        -137.06004
  132 Torsion                  9    10    14    13          18.90400
  133 Torsion                  9    10    14    16         139.61781
  134 Torsion                 10     2     4    12           0.00000
  135 Torsion                 10     2     6    14          19.49328
  136 Torsion                 10    12    16    14           0.00000
  137 Torsion                 10    12    16    15         120.71381
  138 Torsion                 10    14    16    12           0.00000
  139 Torsion                 10    14    16    15        -128.74104
  140 Torsion                 11    12    10    14         137.06004
  141 Torsion                 11    12    16    14        -139.61781
  142 Torsion                 11    12    16    15         -18.90400
  143 Torsion                 12     4     8    16         -19.49328
  144 Torsion                 12    10    14    13        -120.71381
  145 Torsion                 12    10    14    16          -0.00000
  146 Torsion                 12    16    14    13         128.74104
  147 Torsion                 13    14    16    15           0.00000
  148 Torsion                 14    10    12    16           0.00000


            XYZ format geometry
            -------------------
    16
 geometry
 H                     2.04891114    -1.28385753     0.01452527
 C                     1.07007002    -0.81239360    -0.05733771
 H                     2.04891114     1.28385753     0.01452527
 C                     1.07007002     0.81239360    -0.05733771
 H                     0.00000000    -1.61019161    -2.01624113
 C                     0.00000000    -1.32325628    -0.97149624
 H                     0.00000000     1.61019161    -2.01624113
 C                     0.00000000     1.32325628    -0.97149624
 H                     0.00000000    -1.43928333     1.94870807
 C                     0.00000000    -0.77017176     1.09258543
 H                     0.00000000     1.43928333     1.94870807
 C                     0.00000000     0.77017176     1.09258543
 H                    -2.04891114    -1.28385753     0.01452527
 C                    -1.07007002    -0.81239360    -0.05733771
 H                    -2.04891114     1.28385753     0.01452527
 C                    -1.07007002     0.81239360    -0.05733771

 ==============================================================================
                                internuclear distances
 ------------------------------------------------------------------------------
       center one      |      center two      | atomic units |  angstroms
 ------------------------------------------------------------------------------
    2 C                |   1 H                |     2.05761  |     1.08884
    4 C                |   2 C                |     3.07040  |     1.62479
    4 C                |   3 H                |     2.05761  |     1.08884
    6 C                |   2 C                |     2.82937  |     1.49724
    6 C                |   5 H                |     2.04739  |     1.08343
    8 C                |   4 C                |     2.82937  |     1.49724
    8 C                |   7 H                |     2.04739  |     1.08343
   10 C                |   2 C                |     2.96943  |     1.57135
   10 C                |   9 H                |     2.05334  |     1.08658
   12 C                |   4 C                |     2.96943  |     1.57135
   12 C                |  10 C                |     2.91083  |     1.54034
   12 C                |  11 H                |     2.05334  |     1.08658
   14 C                |   6 C                |     2.82937  |     1.49724
   14 C                |  10 C                |     2.96943  |     1.57135
   14 C                |  13 H                |     2.05761  |     1.08884
   16 C                |   8 C                |     2.82937  |     1.49724
   16 C                |  12 C                |     2.96943  |     1.57135
   16 C                |  14 C                |     3.07040  |     1.62479
   16 C                |  15 H                |     2.05761  |     1.08884
 ------------------------------------------------------------------------------
                         number of included internuclear distances:         19
 ==============================================================================



 ==============================================================================
                                 internuclear angles
 ------------------------------------------------------------------------------
        center 1       |       center 2       |       center 3       |  degrees
 ------------------------------------------------------------------------------
    1 H                |   2 C                |   4 C                |   115.66
    1 H                |   2 C                |   6 C                |   122.35
    1 H                |   2 C                |  10 C                |   125.14
    4 C                |   2 C                |   6 C                |   109.95
    4 C                |   2 C                |  10 C                |    88.46
    6 C                |   2 C                |  10 C                |    88.24
    2 C                |   4 C                |   3 H                |   115.66
    2 C                |   4 C                |   8 C                |   109.95
    2 C                |   4 C                |  12 C                |    88.46
    3 H                |   4 C                |   8 C                |   122.35
    3 H                |   4 C                |  12 C                |   125.14
    8 C                |   4 C                |  12 C                |    88.24
    2 C                |   6 C                |   5 H                |   132.78
    2 C                |   6 C                |  14 C                |    91.24
    5 H                |   6 C                |  14 C                |   132.78
    4 C                |   8 C                |   7 H                |   132.78
    4 C                |   8 C                |  16 C                |    91.24
    7 H                |   8 C                |  16 C                |   132.78
    2 C                |  10 C                |   9 H                |   124.06
    2 C                |  10 C                |  12 C                |    91.54
    2 C                |  10 C                |  14 C                |    85.84
    9 H                |  10 C                |  12 C                |   128.01
    9 H                |  10 C                |  14 C                |   124.06
   12 C                |  10 C                |  14 C                |    91.54
    4 C                |  12 C                |  10 C                |    91.54
    4 C                |  12 C                |  11 H                |   124.06
    4 C                |  12 C                |  16 C                |    85.84
   10 C                |  12 C                |  11 H                |   128.01
   10 C                |  12 C                |  16 C                |    91.54
   11 H                |  12 C                |  16 C                |   124.06
    6 C                |  14 C                |  10 C                |    88.24
    6 C                |  14 C                |  13 H                |   122.35
    6 C                |  14 C                |  16 C                |   109.95
   10 C                |  14 C                |  13 H                |   125.14
   10 C                |  14 C                |  16 C                |    88.46
   13 H                |  14 C                |  16 C                |   115.66
    8 C                |  16 C                |  12 C                |    88.24
    8 C                |  16 C                |  14 C                |   109.95
    8 C                |  16 C                |  15 H                |   122.35
   12 C                |  16 C                |  14 C                |    88.46
   12 C                |  16 C                |  15 H                |   125.14
   14 C                |  16 C                |  15 H                |   115.66
 ------------------------------------------------------------------------------
                            number of included internuclear angles:         42
 ==============================================================================



  library name resolved from: environment
  library file name is: </home/vladimir/bin/nwchem-6.8/src/basis/libraries/>
  
                      Basis "ao basis" -> "" (cartesian)
                      -----
  H (Hydrogen)
  ------------
            Exponent  Coefficients 
       -------------- ---------------------------------------------------------
  1 S  1.30107010E+01  0.019682
  1 S  1.96225720E+00  0.137965
  1 S  4.44537960E-01  0.478319

  2 S  1.21949620E-01  1.000000

  3 P  8.00000000E-01  1.000000

  C (Carbon)
  ----------
            Exponent  Coefficients 
       -------------- ---------------------------------------------------------
  1 S  1.23840169E+03  0.005457
  1 S  1.86290050E+02  0.040638
  1 S  4.22511763E+01  0.180256
  1 S  1.16765579E+01  0.463151
  1 S  3.59305065E+00  0.440872

  2 S  4.02451474E-01  1.000000

  3 S  1.30901827E-01  1.000000

  4 P  9.46809706E+00  0.038388
  4 P  2.01035451E+00  0.211170
  4 P  5.47710047E-01  0.513282

  5 P  1.52686138E-01  1.000000

  6 D  8.00000000E-01  1.000000



 Summary of "ao basis" -> "" (cartesian)
 ------------------------------------------------------------------------------
       Tag                 Description            Shells   Functions and Types
 ---------------- ------------------------------  ------  ---------------------
 H                          def2-SVP                 3        5   2s1p
 C                          def2-SVP                 6       15   3s2p1d




                           NWChem Geometry Optimization
                           ----------------------------




             cubane T-biradical UHF/def2-SVP DFT geometry optimization


 maximum gradient threshold         (gmax) =   0.000450
 rms gradient threshold             (grms) =   0.000300
 maximum cartesian step threshold   (xmax) =   0.001800
 rms cartesian step threshold       (xrms) =   0.001200
 fixed trust radius                (trust) =   0.300000
 maximum step size to saddle      (sadstp) =   0.100000
 energy precision                  (eprec) =   5.0D-06
 maximum number of steps          (nptopt) =   20
 initial hessian option           (inhess) =    0
 line search option               (linopt) =    1
 hessian update option            (modupd) =    1
 saddle point option              (modsad) =    0
 initial eigen-mode to follow     (moddir) =    0
 initial variable to follow       (vardir) =    0
 follow first negative mode     (firstneg) =    T
 apply conjugacy                    (opcg) =    F
 source of zmatrix                         =   autoz   


          -------------------
          Energy Minimization
          -------------------


 Names of Z-matrix variables 
    1              2              3              4              5         
    6              7              8              9             10         
   11             12             13             14             15         
   16             17             18             19             20         
   21             22             23             24             25         
   26             27             28             29             30         
   31             32             33             34             35         
   36             37             38             39             40         
   41             42             43             44             45         
   46             47             48             49             50         
   51             52             53             54             55         
   56             57             58             59             60         
   61             62             63             64             65         
   66             67             68             69             70         
   71             72             73             74             75         
   76             77             78             79             80         
   81             82             83             84             85         
   86             87             88             89             90         
   91             92             93             94             95         
   96             97             98             99            100         
  101            102            103            104            105         
  106            107            108            109            110         
  111            112            113            114            115         
  116            117            118            119            120         
  121            122            123            124            125         
  126            127            128            129            130         
  131            132            133            134            135         
  136            137            138            139            140         
  141            142            143            144            145         
  146            147            148         

 Variables with the same non-blank name are constrained to be equal


 Using diagonal initial Hessian 
 Scaling for Hessian diagonals: bonds = 1.00  angles = 0.25  torsions = 0.10

          --------
          Step   0
          --------


                         Geometry "geometry" -> "geometry"
                         ---------------------------------

 Output coordinates in angstroms (scale by  1.889725989 to convert to a.u.)

  No.       Tag          Charge          X              Y              Z
 ---- ---------------- ---------- -------------- -------------- --------------
    1 H                    1.0000     2.04891114    -1.28385753     0.01452527
    2 C                    6.0000     1.07007002    -0.81239360    -0.05733771
    3 H                    1.0000     2.04891114     1.28385753     0.01452527
    4 C                    6.0000     1.07007002     0.81239360    -0.05733771
    5 H                    1.0000     0.00000000    -1.61019161    -2.01624113
    6 C                    6.0000     0.00000000    -1.32325628    -0.97149624
    7 H                    1.0000     0.00000000     1.61019161    -2.01624113
    8 C                    6.0000     0.00000000     1.32325628    -0.97149624
    9 H                    1.0000     0.00000000    -1.43928333     1.94870807
   10 C                    6.0000     0.00000000    -0.77017176     1.09258543
   11 H                    1.0000     0.00000000     1.43928333     1.94870807
   12 C                    6.0000     0.00000000     0.77017176     1.09258543
   13 H                    1.0000    -2.04891114    -1.28385753     0.01452527
   14 C                    6.0000    -1.07007002    -0.81239360    -0.05733771
   15 H                    1.0000    -2.04891114     1.28385753     0.01452527
   16 C                    6.0000    -1.07007002     0.81239360    -0.05733771

      Atomic Mass 
      ----------- 

      H                  1.007825
      C                 12.000000


 Effective nuclear repulsion energy (a.u.)     359.0052734129

            Nuclear Dipole moment (a.u.) 
            ----------------------------
        X                 Y               Z
 ---------------- ---------------- ----------------
     0.0000000000     0.0000000000    -0.0000000000

      Symmetry information
      --------------------

 Group name             C2v       
 Group number             16
 Group order               4
 No. of unique centers     6

      Symmetry unique atoms

     1    2    5    6    9   10


                                 NWChem DFT Module
                                 -----------------


             cubane T-biradical UHF/def2-SVP DFT geometry optimization




 Summary of "ao basis" -> "ao basis" (cartesian)
 ------------------------------------------------------------------------------
       Tag                 Description            Shells   Functions and Types
 ---------------- ------------------------------  ------  ---------------------
 H                          def2-SVP                 3        5   2s1p
 C                          def2-SVP                 6       15   3s2p1d


      Symmetry analysis of basis
      --------------------------

        a1         50
        a2         30
        b1         30
        b2         50

  Caching 1-el integrals 

            General Information
            -------------------
          SCF calculation type: DFT
          Wavefunction type:  spin polarized.
          No. of atoms     :    16
          No. of electrons :    56
           Alpha electrons :    29
            Beta electrons :    27
          Charge           :     0
          Spin multiplicity:     3
          Use of symmetry is: on ; symmetry adaption is: on 
          Maximum number of iterations:  30
          AO basis - number of functions:   160
                     number of shells:    72
          Convergence on energy requested:  1.00D-06
          Convergence on density requested:  1.00D-05
          Convergence on gradient requested:  5.00D-04

              XC Information
              --------------
                         B3LYP Method XC Potential
                     Hartree-Fock (Exact) Exchange  0.200          
                        Slater Exchange Functional  0.800 local    
                    Becke 1988 Exchange Functional  0.720 non-local
              Lee-Yang-Parr Correlation Functional  0.810          
                  VWN I RPA Correlation Functional  0.190 local    

             Grid Information
             ----------------
          Grid used for XC integration:  medium    
          Radial quadrature: Mura-Knowles        
          Angular quadrature: Lebedev. 
          Tag              B.-S. Rad. Rad. Pts. Rad. Cut. Ang. Pts.
          ---              ---------- --------- --------- ---------
          H                   0.35       45          12.0       434
          C                   0.70       49          11.0       434
          Grid pruning is: on 
          Number of quadrature shells:   282
          Spatial weights used:  Erf1

          Convergence Information
          -----------------------
          Convergence aids based upon iterative change in 
          total energy or number of iterations. 
          Levelshifting, if invoked, occurs when the 
          HOMO/LUMO gap drops below (HL_TOL):  1.00D-02
          DIIS, if invoked, will attempt to extrapolate 
          using up to (NFOCK): 10 stored Fock matrices.

                    Damping( 0%)  Levelshifting(0.5)       DIIS
                  --------------- ------------------- ---------------
          dE  on:    start            ASAP                start   
          dE off:    2 iters         30 iters            30 iters 


      Screening Tolerance Information
      -------------------------------
          Density screening/tol_rho:  1.00D-10
          AO Gaussian exp screening on grid/accAOfunc:  14
          CD Gaussian exp screening on grid/accCDfunc:  20
          XC Gaussian exp screening on grid/accXCfunc:  20
          Schwarz screening/accCoul:  1.00D-08


      Superposition of Atomic Density Guess
      -------------------------------------

 Sum of atomic energies:        -304.99271631

      Non-variational initial energy
      ------------------------------

 Total energy =    -311.197410
 1-e energy   =   -1120.605754
 2-e energy   =     450.403070
 HOMO         =      -0.171384
 LUMO         =      -0.113482


   Symmetry analysis of molecular orbitals - initial alpha
   -------------------------------------------------------

  Numbering of irreducible representations: 

     1 a1          2 a2          3 b1          4 b2      

  Orbital symmetries:

     1 a1          2 b2          3 b1          4 a1          5 a2      
     6 b2          7 a1          8 b2          9 a1         10 b2      
    11 b1         12 a1         13 b2         14 a2         15 a1      
    16 a1         17 b2         18 a1         19 b2         20 b1      
    21 a1         22 b1         23 b1         24 a2         25 a1      
    26 b2         27 a2         28 b2         29 a1         30 a1      
    31 b1         32 a1         33 b2         34 a1         35 a2      
    36 b1         37 b2         38 a1         39 b2      


   Symmetry analysis of molecular orbitals - initial beta
   ------------------------------------------------------

  Numbering of irreducible representations: 

     1 a1          2 a2          3 b1          4 b2      

  Orbital symmetries:

     1 a1          2 b2          3 b1          4 a1          5 a2      
     6 b2          7 a1          8 b2          9 a1         10 b2      
    11 b1         12 a1         13 b2         14 a2         15 a1      
    16 a1         17 b2         18 a1         19 b2         20 b1      
    21 a1         22 b1         23 b1         24 a2         25 a1      
    26 b2         27 a2         28 b2         29 a1         30 a1      
    31 b1         32 a1         33 b2         34 a1         35 a2      
    36 b1         37 b2         38 a1         39 b2      

   Time after variat. SCF:      0.7
   Time prior to 1st pass:      0.7

 Integral file          = ./triplet.aoints.0
 Record size in doubles =  65536        No. of integs per rec  =  43688
 Max. records in memory =    835        Max. records in file   = 128853
 No. of bits per label  =      8        No. of bits per value  =     64


 #quartets = 8.644D+05 #integrals = 1.860D+07 #direct =  0.0% #cached =100.0%


 Grid_pts file          = ./triplet.gridpts.0
 Record size in doubles =  12289        No. of grid_pts per rec  =   3070
 Max. records in memory =     45        Max. recs in file   =    687166


           Memory utilization after 1st SCF pass: 
           Heap Space remaining (MW):        0.00                  10
          Stack Space remaining (MW):      131.07           131069996

   convergence    iter        energy       DeltaE   RMS-Dens  Diis-err    time
 ---------------- ----- ----------------- --------- --------- ---------  ------
 d= 0,ls=0.0,diis     1   -309.1056740134 -6.68D+02  8.16D-03  1.78D-01     3.6
                                                     8.81D-03  1.67D-01
 d= 0,ls=0.0,diis     2   -309.1868782533 -8.12D-02  1.47D-03  7.08D-03     5.0
                                                     9.69D-04  6.81D-03
 d= 0,ls=0.0,diis     3   -309.1878033647 -9.25D-04  8.72D-04  6.96D-03     6.4
                                                     8.73D-04  6.56D-03
 d= 0,ls=0.0,diis     4   -309.1912223822 -3.42D-03  2.61D-04  3.12D-04     8.0
                                                     1.96D-04  2.28D-04
 d= 0,ls=0.0,diis     5   -309.1913612384 -1.39D-04  3.46D-05  4.92D-06     9.5
                                                     4.97D-05  2.29D-05
  Resetting Diis
 d= 0,ls=0.0,diis     6   -309.1913706255 -9.39D-06  3.20D-05  9.37D-06    11.0
                                                     1.43D-05  3.61D-06
 d= 0,ls=0.0,diis     7   -309.1913743192 -3.69D-06  1.01D-05  2.08D-07    12.5
                                                     8.19D-06  4.66D-07
 d= 0,ls=0.0,diis     8   -309.1913743700 -5.09D-08  7.30D-06  5.57D-07    14.0
                                                     3.41D-06  3.68D-07


         Total DFT energy =     -309.191374370023
      One electron energy =    -1127.220340026138
           Coulomb energy =      505.319004082352
    Exchange-Corr. energy =      -46.295311839121
 Nuclear repulsion energy =      359.005273412884

 Numeric. integr. density =       56.000001318300

     Total iterative time =     13.3s



                  Occupations of the irreducible representations
                  ----------------------------------------------

                     irrep           alpha         beta
                     --------     --------     --------
                     a1               11.0         10.0
                     a2                4.0          4.0
                     b1                5.0          5.0
                     b2                9.0          8.0


                    DFT Final Alpha Molecular Orbital Analysis
                    ------------------------------------------

 Vector    1  Occ=1.000000D+00  E=-1.020133D+01  Symmetry=b2
              MO Center=  1.2D-12,  7.8D-13, -6.3D-02, r^2= 1.8D+00
   Bfn.  Coefficient  Atom+Function         Bfn.  Coefficient  Atom+Function  
  ----- ------------  ---------------      ----- ------------  ---------------
     6      0.492346   2 C  s                26     -0.492346   4 C  s         
   126      0.492346  14 C  s               146     -0.492346  16 C  s         
     8     -0.120860   2 C  s                28      0.120860   4 C  s         
   128     -0.120860  14 C  s               148      0.120860  16 C  s         
    88      0.110803  10 C  s               108     -0.110803  12 C  s         

 Vector    2  Occ=1.000000D+00  E=-1.020127D+01  Symmetry=a1
              MO Center=  2.8D-11, -7.9D-13, -6.0D-02, r^2= 1.8D+00
   Bfn.  Coefficient  Atom+Function         Bfn.  Coefficient  Atom+Function  
  ----- ------------  ---------------      ----- ------------  ---------------
     6      0.492968   2 C  s                26      0.492968   4 C  s         
   126      0.492968  14 C  s               146      0.492968  16 C  s         
    46      0.035311   6 C  s                66      0.035311   8 C  s         
     8     -0.031716   2 C  s                28     -0.031716   4 C  s         
   128     -0.031716  14 C  s               148     -0.031716  16 C  s         

 Vector    3  Occ=1.000000D+00  E=-1.020125D+01  Symmetry=a2
              MO Center= -1.3D-12,  4.2D-11, -5.7D-02, r^2= 1.8D+00
   Bfn.  Coefficient  Atom+Function         Bfn.  Coefficient  Atom+Function  
  ----- ------------  ---------------      ----- ------------  ---------------
     6      0.493718   2 C  s                26     -0.493718   4 C  s         
   126     -0.493718  14 C  s               146      0.493718  16 C  s         
     8     -0.069228   2 C  s                28      0.069228   4 C  s         
   128      0.069228  14 C  s               148     -0.069228  16 C  s         
     7      0.030360   2 C  s                27     -0.030360   4 C  s         

 Vector    4  Occ=1.000000D+00  E=-1.020119D+01  Symmetry=b1
              MO Center= -2.8D-11, -4.2D-11, -5.7D-02, r^2= 1.8D+00
   Bfn.  Coefficient  Atom+Function         Bfn.  Coefficient  Atom+Function  
  ----- ------------  ---------------      ----- ------------  ---------------
     6      0.493603   2 C  s                26      0.493603   4 C  s         
   126     -0.493603  14 C  s               146     -0.493603  16 C  s         
     7      0.028648   2 C  s                27      0.028648   4 C  s         
   127     -0.028648  14 C  s               147     -0.028648  16 C  s         
     8     -0.025162   2 C  s                28     -0.025162   4 C  s         

 Vector    5  Occ=1.000000D+00  E=-1.019872D+01  Symmetry=b2
              MO Center=  9.4D-14, -4.2D-12, -9.7D-01, r^2= 1.8D+00
   Bfn.  Coefficient  Atom+Function         Bfn.  Coefficient  Atom+Function  
  ----- ------------  ---------------      ----- ------------  ---------------
    46      0.695829   6 C  s                66     -0.695829   8 C  s         
    88      0.078805  10 C  s               108     -0.078805  12 C  s         
     8     -0.046578   2 C  s                28      0.046578   4 C  s         
   128     -0.046578  14 C  s               148      0.046578  16 C  s         
    47      0.042100   6 C  s                67     -0.042100   8 C  s         

 Vector    6  Occ=1.000000D+00  E=-1.019859D+01  Symmetry=a1
              MO Center= -6.5D-14,  4.3D-12, -9.7D-01, r^2= 1.8D+00
   Bfn.  Coefficient  Atom+Function         Bfn.  Coefficient  Atom+Function  
  ----- ------------  ---------------      ----- ------------  ---------------
    46      0.696940   6 C  s                66      0.696940   8 C  s         
    47      0.037108   6 C  s                67      0.037108   8 C  s         
     6     -0.025153   2 C  s                26     -0.025153   4 C  s         
   126     -0.025153  14 C  s               146     -0.025153  16 C  s         

 Vector    7  Occ=1.000000D+00  E=-1.019590D+01  Symmetry=a1
              MO Center= -4.4D-16, -1.7D-16,  1.1D+00, r^2= 6.2D-01
   Bfn.  Coefficient  Atom+Function         Bfn.  Coefficient  Atom+Function  
  ----- ------------  ---------------      ----- ------------  ---------------
    86      0.698021  10 C  s               106      0.698021  12 C  s         
    88     -0.045314  10 C  s               108     -0.045314  12 C  s         
    87      0.042480  10 C  s               107      0.042480  12 C  s         

 Vector    8  Occ=1.000000D+00  E=-1.019585D+01  Symmetry=b2
              MO Center= -1.1D-17, -1.6D-16,  1.1D+00, r^2= 6.2D-01
   Bfn.  Coefficient  Atom+Function         Bfn.  Coefficient  Atom+Function  
  ----- ------------  ---------------      ----- ------------  ---------------
    86      0.698271  10 C  s               106     -0.698271  12 C  s         
    88     -0.143365  10 C  s               108      0.143365  12 C  s         
     8      0.049521   2 C  s                28     -0.049521   4 C  s         
   128      0.049521  14 C  s               148     -0.049521  16 C  s         
    87      0.044829  10 C  s               107     -0.044829  12 C  s         

 Vector    9  Occ=1.000000D+00  E=-9.270467D-01  Symmetry=a1
              MO Center= -5.9D-15, -1.7D-15,  1.4D-01, r^2= 1.7D+00
   Bfn.  Coefficient  Atom+Function         Bfn.  Coefficient  Atom+Function  
  ----- ------------  ---------------      ----- ------------  ---------------
    87      0.191872  10 C  s               107      0.191872  12 C  s         
     7      0.169851   2 C  s                27      0.169851   4 C  s         
   127      0.169851  14 C  s               147      0.169851  16 C  s         
    47      0.130916   6 C  s                67      0.130916   8 C  s         
    86     -0.102259  10 C  s               106     -0.102259  12 C  s         

 Vector   10  Occ=1.000000D+00  E=-7.817101D-01  Symmetry=b2
              MO Center=  2.9D-16,  4.0D-15, -1.9D-01, r^2= 2.5D+00
   Bfn.  Coefficient  Atom+Function         Bfn.  Coefficient  Atom+Function  
  ----- ------------  ---------------      ----- ------------  ---------------
    88      0.306597  10 C  s               108     -0.306597  12 C  s         
    47      0.246233   6 C  s                67     -0.246233   8 C  s         
     7      0.181667   2 C  s                27     -0.181667   4 C  s         
   127      0.181667  14 C  s               147     -0.181667  16 C  s         
     8     -0.154503   2 C  s                28      0.154503   4 C  s         

 Vector   11  Occ=1.000000D+00  E=-7.087827D-01  Symmetry=b1
              MO Center=  6.0D-15, -1.4D-17,  1.6D-02, r^2= 2.8D+00
   Bfn.  Coefficient  Atom+Function         Bfn.  Coefficient  Atom+Function  
  ----- ------------  ---------------      ----- ------------  ---------------
     7      0.251014   2 C  s                27      0.251014   4 C  s         
   127     -0.251014  14 C  s               147     -0.251014  16 C  s         
     6     -0.128522   2 C  s                26     -0.128522   4 C  s         
   126      0.128522  14 C  s               146      0.128522  16 C  s         
    89      0.102953  10 C  px              109      0.102953  12 C  px        

 Vector   12  Occ=1.000000D+00  E=-6.927540D-01  Symmetry=a1
              MO Center=  1.5D-17, -1.8D-15,  4.5D-02, r^2= 3.0D+00
   Bfn.  Coefficient  Atom+Function         Bfn.  Coefficient  Atom+Function  
  ----- ------------  ---------------      ----- ------------  ---------------
    87     -0.244770  10 C  s               107     -0.244770  12 C  s         
    47      0.238854   6 C  s                67      0.238854   8 C  s         
    48      0.129278   6 C  s                68      0.129278   8 C  s         
    86      0.125871  10 C  s               106      0.125871  12 C  s         
    46     -0.123824   6 C  s                66     -0.123824   8 C  s         

 Vector   13  Occ=1.000000D+00  E=-5.805171D-01  Symmetry=b2
              MO Center= -7.7D-15, -7.6D-17, -5.8D-02, r^2= 4.3D+00
   Bfn.  Coefficient  Atom+Function         Bfn.  Coefficient  Atom+Function  
  ----- ------------  ---------------      ----- ------------  ---------------
    47      0.238454   6 C  s                67     -0.238454   8 C  s         
    87     -0.231849  10 C  s               107      0.231849  12 C  s         
    41      0.156238   5 H  s                61     -0.156238   7 H  s         
    81     -0.146861   9 H  s               101      0.146861  11 H  s         
    46     -0.116906   6 C  s                48      0.116545   6 C  s         

 Vector   14  Occ=1.000000D+00  E=-5.738192D-01  Symmetry=a2
              MO Center=  7.1D-15, -1.6D-17, -1.1D-01, r^2= 3.9D+00
   Bfn.  Coefficient  Atom+Function         Bfn.  Coefficient  Atom+Function  
  ----- ------------  ---------------      ----- ------------  ---------------
     7      0.234453   2 C  s                27     -0.234453   4 C  s         
   127     -0.234453  14 C  s               147      0.234453  16 C  s         
     1      0.149115   1 H  s                21     -0.149115   3 H  s         
   121     -0.149115  13 H  s               141      0.149115  15 H  s         
    49      0.138328   6 C  px               69     -0.138328   8 C  px        

 Vector   15  Occ=1.000000D+00  E=-5.549673D-01  Symmetry=a1
              MO Center= -5.5D-16,  1.3D-15, -4.1D-02, r^2= 4.2D+00
   Bfn.  Coefficient  Atom+Function         Bfn.  Coefficient  Atom+Function  
  ----- ------------  ---------------      ----- ------------  ---------------
    47      0.178464   6 C  s                67      0.178464   8 C  s         
    87      0.146957  10 C  s               107      0.146957  12 C  s         
     7     -0.141164   2 C  s                27     -0.141164   4 C  s         
   127     -0.141164  14 C  s               147     -0.141164  16 C  s         
    48      0.125267   6 C  s                68      0.125267   8 C  s         

 Vector   16  Occ=1.000000D+00  E=-5.291076D-01  Symmetry=a1
              MO Center= -1.2D-15,  4.5D-15,  2.6D-01, r^2= 4.2D+00
   Bfn.  Coefficient  Atom+Function         Bfn.  Coefficient  Atom+Function  
  ----- ------------  ---------------      ----- ------------  ---------------
     9      0.155379   2 C  px               29      0.155379   4 C  px        
    48      0.155322   6 C  s                68      0.155322   8 C  s         
   129     -0.155379  14 C  px              149     -0.155379  16 C  px        
    91      0.154528  10 C  pz              111      0.154528  12 C  pz        
    81      0.136373   9 H  s               101      0.136373  11 H  s         

 Vector   17  Occ=1.000000D+00  E=-4.744879D-01  Symmetry=b2
              MO Center=  6.4D-18, -1.5D-14,  1.1D-01, r^2= 5.1D+00
   Bfn.  Coefficient  Atom+Function         Bfn.  Coefficient  Atom+Function  
  ----- ------------  ---------------      ----- ------------  ---------------
    81      0.209572   9 H  s               101     -0.209572  11 H  s         
    41      0.188537   5 H  s                61     -0.188537   7 H  s         
    51     -0.181163   6 C  pz               71      0.181163   8 C  pz        
    87      0.153203  10 C  s               107     -0.153203  12 C  s         
    91      0.138706  10 C  pz              111     -0.138706  12 C  pz        

 Vector   18  Occ=1.000000D+00  E=-4.686278D-01  Symmetry=a1
              MO Center= -4.8D-17,  8.0D-15, -3.4D-01, r^2= 3.5D+00
   Bfn.  Coefficient  Atom+Function         Bfn.  Coefficient  Atom+Function  
  ----- ------------  ---------------      ----- ------------  ---------------
    51      0.237116   6 C  pz               71      0.237116   8 C  pz        
    90     -0.212923  10 C  py              110      0.212923  12 C  py        
    41     -0.173005   5 H  s                61     -0.173005   7 H  s         
    10     -0.151579   2 C  py               30      0.151579   4 C  py        
   130     -0.151579  14 C  py              150      0.151579  16 C  py        

 Vector   19  Occ=1.000000D+00  E=-4.540427D-01  Symmetry=b2
              MO Center= -6.9D-16, -4.7D-17, -6.9D-02, r^2= 4.5D+00
   Bfn.  Coefficient  Atom+Function         Bfn.  Coefficient  Atom+Function  
  ----- ------------  ---------------      ----- ------------  ---------------
     9      0.204285   2 C  px               29     -0.204285   4 C  px        
   129     -0.204285  14 C  px              149      0.204285  16 C  px        
     1      0.200148   1 H  s                21     -0.200148   3 H  s         
   121      0.200148  13 H  s               141     -0.200148  15 H  s         
    51     -0.121660   6 C  pz               71      0.121660   8 C  pz        

 Vector   20  Occ=1.000000D+00  E=-4.304167D-01  Symmetry=b1
              MO Center= -1.7D-15, -2.6D-17,  8.4D-02, r^2= 3.1D+00
   Bfn.  Coefficient  Atom+Function         Bfn.  Coefficient  Atom+Function  
  ----- ------------  ---------------      ----- ------------  ---------------
    89      0.218858  10 C  px              109      0.218858  12 C  px        
    11      0.175070   2 C  pz               31      0.175070   4 C  pz        
   131     -0.175070  14 C  pz              151     -0.175070  16 C  pz        
    49     -0.161139   6 C  px               69     -0.161139   8 C  px        
    10      0.130246   2 C  py               30     -0.130246   4 C  py        

 Vector   21  Occ=1.000000D+00  E=-3.956975D-01  Symmetry=a1
              MO Center= -5.3D-14, -7.5D-16,  1.7D-01, r^2= 3.8D+00
   Bfn.  Coefficient  Atom+Function         Bfn.  Coefficient  Atom+Function  
  ----- ------------  ---------------      ----- ------------  ---------------
    50      0.205565   6 C  py               70     -0.205565   8 C  py        
    91      0.204865  10 C  pz              111      0.204865  12 C  pz        
    81      0.184815   9 H  s               101      0.184815  11 H  s         
    11     -0.133200   2 C  pz               31     -0.133200   4 C  pz        
   131     -0.133200  14 C  pz              151     -0.133200  16 C  pz        

 Vector   22  Occ=1.000000D+00  E=-3.837887D-01  Symmetry=b1
              MO Center=  5.4D-14, -2.3D-14, -2.1D-01, r^2= 3.7D+00
   Bfn.  Coefficient  Atom+Function         Bfn.  Coefficient  Atom+Function  
  ----- ------------  ---------------      ----- ------------  ---------------
    49      0.195646   6 C  px               69      0.195646   8 C  px        
     9     -0.187491   2 C  px               29     -0.187491   4 C  px        
   129     -0.187491  14 C  px              149     -0.187491  16 C  px        
     1     -0.170527   1 H  s                21     -0.170527   3 H  s         
   121      0.170527  13 H  s               141      0.170527  15 H  s         

 Vector   23  Occ=1.000000D+00  E=-3.240002D-01  Symmetry=a2
              MO Center= -2.2D-15,  4.2D-14, -3.8D-01, r^2= 3.4D+00
   Bfn.  Coefficient  Atom+Function         Bfn.  Coefficient  Atom+Function  
  ----- ------------  ---------------      ----- ------------  ---------------
    49      0.311006   6 C  px               69     -0.311006   8 C  px        
    11     -0.172466   2 C  pz               31      0.172466   4 C  pz        
   131      0.172466  14 C  pz              151     -0.172466  16 C  pz        
    52      0.159869   6 C  px               72     -0.159869   8 C  px        
     9     -0.153922   2 C  px               29      0.153922   4 C  px        

 Vector   24  Occ=1.000000D+00  E=-3.170137D-01  Symmetry=b1
              MO Center=  7.5D-18, -2.3D-14,  4.2D-02, r^2= 2.8D+00
   Bfn.  Coefficient  Atom+Function         Bfn.  Coefficient  Atom+Function  
  ----- ------------  ---------------      ----- ------------  ---------------
    10      0.252649   2 C  py               30     -0.252649   4 C  py        
   130     -0.252649  14 C  py              150      0.252649  16 C  py        
    89     -0.185373  10 C  px              109     -0.185373  12 C  px        
    49     -0.151864   6 C  px               69     -0.151864   8 C  px        
    13      0.135684   2 C  py               33     -0.135684   4 C  py        

 Vector   25  Occ=1.000000D+00  E=-2.905573D-01  Symmetry=a1
              MO Center=  7.6D-16, -1.2D-12,  4.8D-01, r^2= 3.0D+00
   Bfn.  Coefficient  Atom+Function         Bfn.  Coefficient  Atom+Function  
  ----- ------------  ---------------      ----- ------------  ---------------
    90      0.338480  10 C  py              110     -0.338480  12 C  py        
    93      0.164356  10 C  py              113     -0.164356  12 C  py        
    51      0.154384   6 C  pz               71      0.154384   8 C  pz        
    91      0.137086  10 C  pz              111      0.137086  12 C  pz        
    11     -0.122874   2 C  pz               31     -0.122874   4 C  pz        

 Vector   26  Occ=1.000000D+00  E=-2.905040D-01  Symmetry=b2
              MO Center=  1.7D-15,  1.2D-12,  1.7D-01, r^2= 3.6D+00
   Bfn.  Coefficient  Atom+Function         Bfn.  Coefficient  Atom+Function  
  ----- ------------  ---------------      ----- ------------  ---------------
    88      0.320395  10 C  s               108     -0.320395  12 C  s         
    91      0.263712  10 C  pz              111     -0.263712  12 C  pz        
     8     -0.260152   2 C  s                28      0.260152   4 C  s         
   128     -0.260152  14 C  s               148      0.260152  16 C  s         
    11     -0.204939   2 C  pz               31      0.204939   4 C  pz        

 Vector   27  Occ=1.000000D+00  E=-2.687104D-01  Symmetry=a2
              MO Center=  9.0D-16,  2.6D-15,  4.5D-01, r^2= 3.0D+00
   Bfn.  Coefficient  Atom+Function         Bfn.  Coefficient  Atom+Function  
  ----- ------------  ---------------      ----- ------------  ---------------
    89      0.310347  10 C  px              109     -0.310347  12 C  px        
    92      0.183191  10 C  px              112     -0.183191  12 C  px        
     9     -0.181753   2 C  px               29      0.181753   4 C  px        
   129     -0.181753  14 C  px              149      0.181753  16 C  px        
    11      0.158373   2 C  pz               31     -0.158373   4 C  pz        

 Vector   28  Occ=1.000000D+00  E=-2.154414D-01  Symmetry=b2
              MO Center= -8.7D-16,  5.1D-15, -7.9D-01, r^2= 3.3D+00
   Bfn.  Coefficient  Atom+Function         Bfn.  Coefficient  Atom+Function  
  ----- ------------  ---------------      ----- ------------  ---------------
    50      0.398959   6 C  py               70      0.398959   8 C  py        
     8      0.290227   2 C  s                28     -0.290227   4 C  s         
   128      0.290227  14 C  s               148     -0.290227  16 C  s         
    53      0.273234   6 C  py               73      0.273234   8 C  py        
    48     -0.217617   6 C  s                68      0.217617   8 C  s         

 Vector   29  Occ=1.000000D+00  E=-1.723289D-01  Symmetry=a1
              MO Center= -6.9D-16, -2.6D-16, -6.2D-01, r^2= 3.6D+00
   Bfn.  Coefficient  Atom+Function         Bfn.  Coefficient  Atom+Function  
  ----- ------------  ---------------      ----- ------------  ---------------
    50      0.343379   6 C  py               70     -0.343379   8 C  py        
    53      0.331479   6 C  py               73     -0.331479   8 C  py        
    10     -0.175780   2 C  py               30      0.175780   4 C  py        
   130     -0.175780  14 C  py              150      0.175780  16 C  py        
    51     -0.130316   6 C  pz               71     -0.130316   8 C  pz        

 Vector   30  Occ=0.000000D+00  E= 6.471140D-02  Symmetry=a1
              MO Center= -2.6D-14,  1.2D-14,  2.0D-01, r^2= 9.2D+00
   Bfn.  Coefficient  Atom+Function         Bfn.  Coefficient  Atom+Function  
  ----- ------------  ---------------      ----- ------------  ---------------
     2      0.733808   1 H  s                22      0.733808   3 H  s         
   122      0.733808  13 H  s               142      0.733808  15 H  s         
    82      0.670848   9 H  s               102      0.670848  11 H  s         
     8     -0.553433   2 C  s                28     -0.553433   4 C  s         
   128     -0.553433  14 C  s               148     -0.553433  16 C  s         

 Vector   31  Occ=0.000000D+00  E= 7.654457D-02  Symmetry=a1
              MO Center= -1.8D-14,  3.1D-14, -2.9D-02, r^2= 6.8D+00
   Bfn.  Coefficient  Atom+Function         Bfn.  Coefficient  Atom+Function  
  ----- ------------  ---------------      ----- ------------  ---------------
    88      1.428008  10 C  s               108      1.428008  12 C  s         
    48     -0.886757   6 C  s                68     -0.886757   8 C  s         
    42      0.697970   5 H  s                62      0.697970   7 H  s         
    82     -0.602677   9 H  s               102     -0.602677  11 H  s         
    14     -0.496157   2 C  pz               34     -0.496157   4 C  pz        

 Vector   32  Occ=0.000000D+00  E= 8.061919D-02  Symmetry=b1
              MO Center=  5.3D-14,  4.1D-16,  3.0D-01, r^2= 6.6D+00
   Bfn.  Coefficient  Atom+Function         Bfn.  Coefficient  Atom+Function  
  ----- ------------  ---------------      ----- ------------  ---------------
     8      1.137803   2 C  s                28      1.137803   4 C  s         
   128     -1.137803  14 C  s               148     -1.137803  16 C  s         
     2     -0.682984   1 H  s                22     -0.682984   3 H  s         
   122      0.682984  13 H  s               142      0.682984  15 H  s         
    92     -0.605052  10 C  px              112     -0.605052  12 C  px        

 Vector   33  Occ=0.000000D+00  E= 1.087797D-01  Symmetry=b2
              MO Center=  1.6D-13,  1.5D-14,  6.4D-01, r^2= 9.6D+00
   Bfn.  Coefficient  Atom+Function         Bfn.  Coefficient  Atom+Function  
  ----- ------------  ---------------      ----- ------------  ---------------
     8      1.209385   2 C  s                28     -1.209385   4 C  s         
   128      1.209385  14 C  s               148     -1.209385  16 C  s         
    82     -1.088582   9 H  s               102      1.088582  11 H  s         
    94      0.700228  10 C  pz              114     -0.700228  12 C  pz        
     2     -0.664879   1 H  s                22      0.664879   3 H  s         

 Vector   34  Occ=0.000000D+00  E= 1.183033D-01  Symmetry=a1
              MO Center= -5.5D-15, -4.0D-14, -9.9D-01, r^2= 8.8D+00
   Bfn.  Coefficient  Atom+Function         Bfn.  Coefficient  Atom+Function  
  ----- ------------  ---------------      ----- ------------  ---------------
    42      1.252122   5 H  s                62      1.252122   7 H  s         
    88     -0.916208  10 C  s               108     -0.916208  12 C  s         
    54      0.651759   6 C  pz               74      0.651759   8 C  pz        
    82      0.575723   9 H  s               102      0.575723  11 H  s         
    48     -0.565765   6 C  s                68     -0.565765   8 C  s         

 Vector   35  Occ=0.000000D+00  E= 1.289961D-01  Symmetry=b1
              MO Center=  1.2D-14, -1.8D-13,  2.7D-01, r^2= 7.6D+00
   Bfn.  Coefficient  Atom+Function         Bfn.  Coefficient  Atom+Function  
  ----- ------------  ---------------      ----- ------------  ---------------
     2      0.930803   1 H  s                22      0.930803   3 H  s         
   122     -0.930803  13 H  s               142     -0.930803  15 H  s         
    12     -0.665544   2 C  px               32     -0.665544   4 C  px        
   132     -0.665544  14 C  px              152     -0.665544  16 C  px        
    92     -0.480337  10 C  px              112     -0.480337  12 C  px        

 Vector   36  Occ=0.000000D+00  E= 1.322248D-01  Symmetry=a1
              MO Center= -2.8D-14, -1.3D-14,  8.3D-01, r^2= 8.4D+00
   Bfn.  Coefficient  Atom+Function         Bfn.  Coefficient  Atom+Function  
  ----- ------------  ---------------      ----- ------------  ---------------
    82      1.196300   9 H  s               102      1.196300  11 H  s         
    94     -0.670284  10 C  pz              114     -0.670284  12 C  pz        
    42     -0.587737   5 H  s                62     -0.587737   7 H  s         
     2     -0.550984   1 H  s                22     -0.550984   3 H  s         
   122     -0.550984  13 H  s               142     -0.550984  15 H  s         

 Vector   37  Occ=0.000000D+00  E= 1.323260D-01  Symmetry=b2
              MO Center=  8.3D-16,  3.1D-15, -1.3D+00, r^2= 8.8D+00
   Bfn.  Coefficient  Atom+Function         Bfn.  Coefficient  Atom+Function  
  ----- ------------  ---------------      ----- ------------  ---------------
    48     -1.599877   6 C  s                68      1.599877   8 C  s         
    42      1.460420   5 H  s                62     -1.460420   7 H  s         
    82     -0.768578   9 H  s               102      0.768578  11 H  s         
    88      0.596529  10 C  s               108     -0.596529  12 C  s         
     8      0.515886   2 C  s                28     -0.515886   4 C  s         

 Vector   38  Occ=0.000000D+00  E= 1.330650D-01  Symmetry=a2
              MO Center= -2.1D-13,  1.7D-13, -7.9D-03, r^2= 9.8D+00
   Bfn.  Coefficient  Atom+Function         Bfn.  Coefficient  Atom+Function  
  ----- ------------  ---------------      ----- ------------  ---------------
     8      1.515889   2 C  s                28     -1.515889   4 C  s         
   128     -1.515889  14 C  s               148      1.515889  16 C  s         
     2     -1.180175   1 H  s                22      1.180175   3 H  s         
   122      1.180175  13 H  s               142     -1.180175  15 H  s         
    12      0.498633   2 C  px               32     -0.498633   4 C  px        

 Vector   39  Occ=0.000000D+00  E= 1.525275D-01  Symmetry=b2
              MO Center=  6.5D-14, -1.9D-14,  3.0D-01, r^2= 1.0D+01
   Bfn.  Coefficient  Atom+Function         Bfn.  Coefficient  Atom+Function  
  ----- ------------  ---------------      ----- ------------  ---------------
     2      1.091181   1 H  s                22     -1.091181   3 H  s         
   122      1.091181  13 H  s               142     -1.091181  15 H  s         
    94      0.942107  10 C  pz              114     -0.942107  12 C  pz        
    12     -0.924388   2 C  px               32      0.924388   4 C  px        
   132      0.924388  14 C  px              152     -0.924388  16 C  px        

 Vector   40  Occ=0.000000D+00  E= 1.596118D-01  Symmetry=b2
              MO Center= -1.4D-14,  2.2D-14,  9.3D-01, r^2= 4.4D+00
   Bfn.  Coefficient  Atom+Function         Bfn.  Coefficient  Atom+Function  
  ----- ------------  ---------------      ----- ------------  ---------------
    93      1.207348  10 C  py              113      1.207348  12 C  py        
     8      0.940029   2 C  s                28     -0.940029   4 C  s         
   128      0.940029  14 C  s               148     -0.940029  16 C  s         
    82      0.869295   9 H  s               102     -0.869295  11 H  s         
    13      0.468185   2 C  py               33      0.468185   4 C  py        

 Vector   41  Occ=0.000000D+00  E= 1.819640D-01  Symmetry=a2
              MO Center= -4.7D-14,  3.5D-15,  6.7D-02, r^2= 4.2D+00
   Bfn.  Coefficient  Atom+Function         Bfn.  Coefficient  Atom+Function  
  ----- ------------  ---------------      ----- ------------  ---------------
    13      0.855568   2 C  py               33      0.855568   4 C  py        
   133     -0.855568  14 C  py              153     -0.855568  16 C  py        
    92      0.577367  10 C  px              112     -0.577367  12 C  px        
     2      0.347472   1 H  s                22     -0.347472   3 H  s         
   122     -0.347472  13 H  s               142      0.347472  15 H  s         

 Vector   42  Occ=0.000000D+00  E= 2.020259D-01  Symmetry=b1
              MO Center=  3.2D-15, -4.2D-15, -5.2D-01, r^2= 4.3D+00
   Bfn.  Coefficient  Atom+Function         Bfn.  Coefficient  Atom+Function  
  ----- ------------  ---------------      ----- ------------  ---------------
    52      1.158258   6 C  px               72      1.158258   8 C  px        
     8     -0.727256   2 C  s                28     -0.727256   4 C  s         
   128      0.727256  14 C  s               148      0.727256  16 C  s         
    14      0.604036   2 C  pz               34      0.604036   4 C  pz        
   134     -0.604036  14 C  pz              154     -0.604036  16 C  pz        

 Vector   43  Occ=0.000000D+00  E= 2.292933D-01  Symmetry=b2
              MO Center=  4.3D-14,  8.5D-15, -4.0D-02, r^2= 4.5D+00
   Bfn.  Coefficient  Atom+Function         Bfn.  Coefficient  Atom+Function  
  ----- ------------  ---------------      ----- ------------  ---------------
    88      2.315411  10 C  s               108     -2.315411  12 C  s         
    94     -1.345230  10 C  pz              114      1.345230  12 C  pz        
    14     -0.925050   2 C  pz               34      0.925050   4 C  pz        
   134     -0.925050  14 C  pz              154      0.925050  16 C  pz        
     8     -0.546480   2 C  s                28      0.546480   4 C  s         

 Vector   44  Occ=0.000000D+00  E= 2.571302D-01  Symmetry=a1
              MO Center= -1.6D-14, -5.9D-14, -3.8D-01, r^2= 5.2D+00
   Bfn.  Coefficient  Atom+Function         Bfn.  Coefficient  Atom+Function  
  ----- ------------  ---------------      ----- ------------  ---------------
    48      3.459220   6 C  s                68      3.459220   8 C  s         
     8     -2.846415   2 C  s                28     -2.846415   4 C  s         
   128     -2.846415  14 C  s               148     -2.846415  16 C  s         
    88      2.425959  10 C  s               108      2.425959  12 C  s         
    12      1.518937   2 C  px               32      1.518937   4 C  px        

 Vector   45  Occ=0.000000D+00  E= 2.583650D-01  Symmetry=a2
              MO Center= -1.6D-14,  2.1D-14, -3.8D-01, r^2= 5.6D+00
   Bfn.  Coefficient  Atom+Function         Bfn.  Coefficient  Atom+Function  
  ----- ------------  ---------------      ----- ------------  ---------------
     8      2.496829   2 C  s                28     -2.496829   4 C  s         
   128     -2.496829  14 C  s               148      2.496829  16 C  s         
    12     -1.305945   2 C  px               32      1.305945   4 C  px        
   132     -1.305945  14 C  px              152      1.305945  16 C  px        
    52     -1.191977   6 C  px               72      1.191977   8 C  px        

 Vector   46  Occ=0.000000D+00  E= 3.198129D-01  Symmetry=a2
              MO Center=  5.6D-15,  1.0D-15,  2.0D-01, r^2= 4.4D+00
   Bfn.  Coefficient  Atom+Function         Bfn.  Coefficient  Atom+Function  
  ----- ------------  ---------------      ----- ------------  ---------------
    92      1.257558  10 C  px              112     -1.257558  12 C  px        
    14     -1.014541   2 C  pz               34      1.014541   4 C  pz        
   134      1.014541  14 C  pz              154     -1.014541  16 C  pz        
    52     -0.975058   6 C  px               72      0.975058   8 C  px        
    13     -0.881982   2 C  py               33     -0.881982   4 C  py        

 Vector   47  Occ=0.000000D+00  E= 3.286616D-01  Symmetry=b2
              MO Center= -5.4D-15, -1.1D-13,  2.0D-01, r^2= 4.9D+00
   Bfn.  Coefficient  Atom+Function         Bfn.  Coefficient  Atom+Function  
  ----- ------------  ---------------      ----- ------------  ---------------
    88      3.802749  10 C  s               108     -3.802749  12 C  s         
    93      2.107725  10 C  py              113      2.107725  12 C  py        
    48     -1.627592   6 C  s                68      1.627592   8 C  s         
    13     -1.321383   2 C  py               33     -1.321383   4 C  py        
   133     -1.321383  14 C  py              153     -1.321383  16 C  py        

 Vector   48  Occ=0.000000D+00  E= 3.677448D-01  Symmetry=a1
              MO Center=  1.2D-16, -5.7D-14,  1.3D-01, r^2= 5.6D+00
   Bfn.  Coefficient  Atom+Function         Bfn.  Coefficient  Atom+Function  
  ----- ------------  ---------------      ----- ------------  ---------------
     8      1.083065   2 C  s                28      1.083065   4 C  s         
   128      1.083065  14 C  s               148      1.083065  16 C  s         
    94      0.676456  10 C  pz              114      0.676456  12 C  pz        
    54     -0.659414   6 C  pz               74     -0.659414   8 C  pz        
    47     -0.573827   6 C  s                67     -0.573827   8 C  s         

 Vector   49  Occ=0.000000D+00  E= 4.211608D-01  Symmetry=b2
              MO Center= -6.2D-14,  2.2D-13, -4.6D-01, r^2= 5.9D+00
   Bfn.  Coefficient  Atom+Function         Bfn.  Coefficient  Atom+Function  
  ----- ------------  ---------------      ----- ------------  ---------------
    88     -4.337385  10 C  s               108      4.337385  12 C  s         
     8      4.204083   2 C  s                28     -4.204083   4 C  s         
   128      4.204083  14 C  s               148     -4.204083  16 C  s         
    48     -4.041378   6 C  s                68      4.041378   8 C  s         
    12     -1.755659   2 C  px               32      1.755659   4 C  px        

 Vector   50  Occ=0.000000D+00  E= 4.273823D-01  Symmetry=a1
              MO Center= -4.5D-18,  6.5D-14,  2.5D-01, r^2= 5.3D+00
   Bfn.  Coefficient  Atom+Function         Bfn.  Coefficient  Atom+Function  
  ----- ------------  ---------------      ----- ------------  ---------------
    88      0.868036  10 C  s               108      0.868036  12 C  s         
    48     -0.740119   6 C  s                68     -0.740119   8 C  s         
    47      0.384037   6 C  s                67      0.384037   8 C  s         
    81     -0.338824   9 H  s               101     -0.338824  11 H  s         
    12      0.298852   2 C  px               32      0.298852   4 C  px        

 Vector   51  Occ=0.000000D+00  E= 4.313066D-01  Symmetry=b1
              MO Center= -6.6D-15, -2.5D-15, -3.4D-01, r^2= 4.9D+00
   Bfn.  Coefficient  Atom+Function         Bfn.  Coefficient  Atom+Function  
  ----- ------------  ---------------      ----- ------------  ---------------
    52      0.463185   6 C  px               72      0.463185   8 C  px        
    49     -0.364717   6 C  px               69     -0.364717   8 C  px        
    11      0.279708   2 C  pz               31      0.279708   4 C  pz        
   131     -0.279708  14 C  pz              151     -0.279708  16 C  pz        
    92     -0.261679  10 C  px              112     -0.261679  12 C  px        

 Vector   52  Occ=0.000000D+00  E= 4.752726D-01  Symmetry=a1
              MO Center=  2.7D-15, -2.6D-14,  3.6D-02, r^2= 4.9D+00
   Bfn.  Coefficient  Atom+Function         Bfn.  Coefficient  Atom+Function  
  ----- ------------  ---------------      ----- ------------  ---------------
    93      0.621774  10 C  py              113     -0.621774  12 C  py        
    88      0.587097  10 C  s               108      0.587097  12 C  s         
    14     -0.391281   2 C  pz               34     -0.391281   4 C  pz        
   134     -0.391281  14 C  pz              154     -0.391281  16 C  pz        
     8     -0.370170   2 C  s                28     -0.370170   4 C  s         

 Vector   53  Occ=0.000000D+00  E= 4.756685D-01  Symmetry=b1
              MO Center= -3.4D-14, -3.2D-15,  3.3D-01, r^2= 5.2D+00
   Bfn.  Coefficient  Atom+Function         Bfn.  Coefficient  Atom+Function  
  ----- ------------  ---------------      ----- ------------  ---------------
    13      0.476667   2 C  py               33     -0.476667   4 C  py        
   133     -0.476667  14 C  py              153      0.476667  16 C  py        
     8     -0.424196   2 C  s                28     -0.424196   4 C  s         
   128      0.424196  14 C  s               148      0.424196  16 C  s         
    12      0.419251   2 C  px               32      0.419251   4 C  px        

 Vector   54  Occ=0.000000D+00  E= 4.882821D-01  Symmetry=b2
              MO Center=  9.6D-14, -1.7D-14, -2.5D-01, r^2= 6.8D+00
   Bfn.  Coefficient  Atom+Function         Bfn.  Coefficient  Atom+Function  
  ----- ------------  ---------------      ----- ------------  ---------------
    88     12.786610  10 C  s               108    -12.786610  12 C  s         
     8     -9.885183   2 C  s                28      9.885183   4 C  s         
   128     -9.885183  14 C  s               148      9.885183  16 C  s         
    48      6.141599   6 C  s                68     -6.141599   8 C  s         
    94     -4.554247  10 C  pz              114      4.554247  12 C  pz        

 Vector   55  Occ=0.000000D+00  E= 4.919629D-01  Symmetry=a2
              MO Center=  5.5D-14,  1.7D-14, -1.3D-01, r^2= 5.4D+00
   Bfn.  Coefficient  Atom+Function         Bfn.  Coefficient  Atom+Function  
  ----- ------------  ---------------      ----- ------------  ---------------
     8      1.630867   2 C  s                28     -1.630867   4 C  s         
   128     -1.630867  14 C  s               148      1.630867  16 C  s         
    13      0.711107   2 C  py               33      0.711107   4 C  py        
   133     -0.711107  14 C  py              153     -0.711107  16 C  py        
    52     -0.506340   6 C  px               72      0.506340   8 C  px        

 Vector   56  Occ=0.000000D+00  E= 5.158171D-01  Symmetry=a1
              MO Center=  2.5D-14, -3.2D-13,  5.7D-02, r^2= 5.5D+00
   Bfn.  Coefficient  Atom+Function         Bfn.  Coefficient  Atom+Function  
  ----- ------------  ---------------      ----- ------------  ---------------
    88      2.024824  10 C  s               108      2.024824  12 C  s         
    94     -1.294237  10 C  pz              114     -1.294237  12 C  pz        
     8     -0.920210   2 C  s                28     -0.920210   4 C  s         
   128     -0.920210  14 C  s               148     -0.920210  16 C  s         
    54     -0.568431   6 C  pz               74     -0.568431   8 C  pz        

 Vector   57  Occ=0.000000D+00  E= 5.267004D-01  Symmetry=b1
              MO Center= -7.0D-14, -4.9D-14,  1.6D-02, r^2= 4.8D+00
   Bfn.  Coefficient  Atom+Function         Bfn.  Coefficient  Atom+Function  
  ----- ------------  ---------------      ----- ------------  ---------------
    92     -0.470804  10 C  px              112     -0.470804  12 C  px        
     1      0.432087   1 H  s                12     -0.433336   2 C  px        
    21      0.432087   3 H  s                32     -0.433336   4 C  px        
   121     -0.432087  13 H  s               132     -0.433336  14 C  px        
   141     -0.432087  15 H  s               152     -0.433336  16 C  px        

 Vector   58  Occ=0.000000D+00  E= 5.432918D-01  Symmetry=a1
              MO Center=  4.1D-14,  6.4D-14, -4.4D-01, r^2= 5.2D+00
   Bfn.  Coefficient  Atom+Function         Bfn.  Coefficient  Atom+Function  
  ----- ------------  ---------------      ----- ------------  ---------------
    53      0.847179   6 C  py               73     -0.847179   8 C  py        
    50     -0.514707   6 C  py               70      0.514707   8 C  py        
    88     -0.505234  10 C  s               108     -0.505234  12 C  s         
    14      0.340247   2 C  pz               34      0.340247   4 C  pz        
   134      0.340247  14 C  pz              154      0.340247  16 C  pz        

 Vector   59  Occ=0.000000D+00  E= 5.470018D-01  Symmetry=b2
              MO Center=  1.1D-14,  1.3D-13,  2.8D-01, r^2= 5.5D+00
   Bfn.  Coefficient  Atom+Function         Bfn.  Coefficient  Atom+Function  
  ----- ------------  ---------------      ----- ------------  ---------------
     8      2.351930   2 C  s                28     -2.351930   4 C  s         
   128      2.351930  14 C  s               148     -2.351930  16 C  s         
    48     -2.009910   6 C  s                68      2.009910   8 C  s         
    88     -1.324378  10 C  s               108      1.324378  12 C  s         
    53     -1.026299   6 C  py               73     -1.026299   8 C  py        

 Vector   60  Occ=0.000000D+00  E= 5.567089D-01  Symmetry=a2
              MO Center=  8.2D-14,  7.1D-14,  2.4D-01, r^2= 4.9D+00
   Bfn.  Coefficient  Atom+Function         Bfn.  Coefficient  Atom+Function  
  ----- ------------  ---------------      ----- ------------  ---------------
     8      2.376059   2 C  s                28     -2.376059   4 C  s         
   128     -2.376059  14 C  s               148      2.376059  16 C  s         
    13      0.850509   2 C  py               33      0.850509   4 C  py        
   133     -0.850509  14 C  py              153     -0.850509  16 C  py        
[...]
   19 Stretch                 15    16                       1.10066    0.01182
   20 Bend                     1     2     4               115.62640   -0.03148
   21 Bend                     1     2     6               122.30977   -0.03769
   22 Bend                     1     2    10               125.04366   -0.09278
   23 Bend                     2     4     3               115.62640   -0.03148
   24 Bend                     2     4     8               110.09930    0.14906
   25 Bend                     2     4    12                88.53244    0.07215
   26 Bend                     2     6     5               132.86616    0.09073
   27 Bend                     2     6    14                91.01103   -0.22569
   28 Bend                     2    10     9               124.06246    0.00348
   29 Bend                     2    10    12                91.46756   -0.07215
   30 Bend                     2    10    14                86.00722    0.16579
   31 Bend                     3     4     8               122.30977   -0.03769
   32 Bend                     3     4    12               125.04366   -0.09278
   33 Bend                     4     2     6               110.09930    0.14906
   34 Bend                     4     2    10                88.53244    0.07215
   35 Bend                     4     8     7               132.86616    0.09073
   36 Bend                     4     8    16                91.01103   -0.22569
   37 Bend                     4    12    10                91.46756   -0.07215
   38 Bend                     4    12    11               124.06246    0.00348
   39 Bend                     4    12    16                86.00722    0.16579
   40 Bend                     5     6    14               132.86616    0.09073
   41 Bend                     6     2    10                88.20643   -0.03332
   42 Bend                     6    14    10                88.20643   -0.03332
   43 Bend                     6    14    13               122.30977   -0.03769
   44 Bend                     6    14    16               110.09930    0.14906
   45 Bend                     7     8    16               132.86616    0.09073
   46 Bend                     8     4    12                88.20643   -0.03332
   47 Bend                     8    16    12                88.20643   -0.03332
   48 Bend                     8    16    14               110.09930    0.14906
   49 Bend                     8    16    15               122.30977   -0.03769
   50 Bend                     9    10    12               128.00770   -0.00208
   51 Bend                     9    10    14               124.06246    0.00348
   52 Bend                    10    12    11               128.00770   -0.00208
   53 Bend                    10    12    16                91.46756   -0.07215
   54 Bend                    10    14    13               125.04366   -0.09278
   55 Bend                    10    14    16                88.53244    0.07215
   56 Bend                    11    12    16               124.06246    0.00348
   57 Bend                    12    10    14                91.46756   -0.07215
   58 Bend                    12    16    14                88.53244    0.07215
   59 Bend                    12    16    15               125.04366   -0.09278
   60 Bend                    13    14    16               115.62640   -0.03148
   61 Bend                    14    16    15               115.62640   -0.03148
   62 Torsion                  1     2     4     3           0.00000    0.00000
   63 Torsion                  1     2     4     8         143.78319    0.09147
   64 Torsion                  1     2     4    12        -128.66491    0.07614
   65 Torsion                  1     2     6     5         -48.20674   -0.13987
   66 Torsion                  1     2     6    14         150.94005   -0.01342
   67 Torsion                  1     2    10     9         -18.84482    0.05918
   68 Torsion                  1     2    10    12         120.69540   -0.01840
   69 Torsion                  1     2    10    14        -147.93547   -0.08159
   70 Torsion                  2     4     8     7         -92.71995    0.03132
   71 Torsion                  2     4     8    16          68.13327   -0.09512
   72 Torsion                  2     4    12    10           0.00000    0.00000
   73 Torsion                  2     4    12    11         139.54022   -0.07759
   74 Torsion                  2     4    12    16         -91.36913    0.06319
   75 Torsion                  2     6    14    10         -19.64630   -0.15302
   76 Torsion                  2     6    14    13        -150.94005    0.01342
   77 Torsion                  2     6    14    16          68.13327   -0.09512
   78 Torsion                  2    10    12     4           0.00000    0.00000
   79 Torsion                  2    10    12    11        -136.97885    0.08119
   80 Torsion                  2    10    12    16          86.04229    0.16237
   81 Torsion                  2    10    14     6          18.79629    0.21067
   82 Torsion                  2    10    14    13         147.93547    0.08159
   83 Torsion                  2    10    14    16         -91.36913    0.06319
   84 Torsion                  3     4     2     6        -143.78319   -0.09147
   85 Torsion                  3     4     2    10         128.66491   -0.07614
   86 Torsion                  3     4     8     7          48.20674    0.13987
   87 Torsion                  3     4     8    16        -150.94005    0.01342
   88 Torsion                  3     4    12    10        -120.69540    0.01840
   89 Torsion                  3     4    12    11          18.84482   -0.05918
   90 Torsion                  3     4    12    16         147.93547    0.08159
   91 Torsion                  4     2     6     5          92.71995   -0.03132
   92 Torsion                  4     2     6    14         -68.13327    0.09512
   93 Torsion                  4     2    10     9        -139.54022    0.07759
   94 Torsion                  4     2    10    12           0.00000    0.00000
   95 Torsion                  4     2    10    14          91.36913   -0.06319
   96 Torsion                  4     8    16    12          19.64630    0.15302
   97 Torsion                  4     8    16    14         -68.13327    0.09512
   98 Torsion                  4     8    16    15         150.94005   -0.01342
   99 Torsion                  4    12    10     9         136.97885   -0.08119
  100 Torsion                  4    12    10    14         -86.04229   -0.16237
  101 Torsion                  4    12    16     8         -18.79629   -0.21067
  102 Torsion                  4    12    16    14          91.36913   -0.06319
  103 Torsion                  4    12    16    15        -147.93547   -0.08159
  104 Torsion                  5     6     2    10        -179.50048    0.02658
  105 Torsion                  5     6    14    10         179.50048   -0.02658
  106 Torsion                  5     6    14    13          48.20674    0.13987
  107 Torsion                  5     6    14    16         -92.71995    0.03132
  108 Torsion                  6     2     4     8           0.00000    0.00000
  109 Torsion                  6     2     4    12          87.55191   -0.01533
  110 Torsion                  6     2    10     9         110.29436   -0.06990
  111 Torsion                  6     2    10    12        -110.16542   -0.14748
  112 Torsion                  6     2    10    14         -18.79629   -0.21067
  113 Torsion                  6    14    10     9        -110.29436    0.06990
  114 Torsion                  6    14    10    12         110.16542    0.14748
  115 Torsion                  6    14    16     8           0.00000    0.00000
  116 Torsion                  6    14    16    12         -87.55191    0.01533
  117 Torsion                  6    14    16    15         143.78319    0.09147
  118 Torsion                  7     8     4    12         179.50048   -0.02658
  119 Torsion                  7     8    16    12        -179.50048    0.02658
  120 Torsion                  7     8    16    14          92.71995   -0.03132
  121 Torsion                  7     8    16    15         -48.20674   -0.13987
  122 Torsion                  8     4     2    10         -87.55191    0.01533
  123 Torsion                  8     4    12    10         110.16542    0.14748
  124 Torsion                  8     4    12    11        -110.29436    0.06990
  125 Torsion                  8     4    12    16          18.79629    0.21067
  126 Torsion                  8    16    12    10        -110.16542   -0.14748
  127 Torsion                  8    16    12    11         110.29436   -0.06990
  128 Torsion                  8    16    14    10          87.55191   -0.01533
  129 Torsion                  8    16    14    13        -143.78319   -0.09147
  130 Torsion                  9    10    12    11           0.00000    0.00000
  131 Torsion                  9    10    12    16        -136.97885    0.08119
  132 Torsion                  9    10    14    13          18.84482   -0.05918
  133 Torsion                  9    10    14    16         139.54022   -0.07759
  134 Torsion                 10     2     4    12           0.00000    0.00000
  135 Torsion                 10     2     6    14          19.64630    0.15302
  136 Torsion                 10    12    16    14           0.00000    0.00000
  137 Torsion                 10    12    16    15         120.69540   -0.01840
  138 Torsion                 10    14    16    12           0.00000    0.00000
  139 Torsion                 10    14    16    15        -128.66491    0.07614
  140 Torsion                 11    12    10    14         136.97885   -0.08119
  141 Torsion                 11    12    16    14        -139.54022    0.07759
  142 Torsion                 11    12    16    15         -18.84482    0.05918
  143 Torsion                 12     4     8    16         -19.64630   -0.15302
  144 Torsion                 12    10    14    13        -120.69540    0.01840
  145 Torsion                 12    10    14    16          -0.00000    0.00000
  146 Torsion                 12    16    14    13         128.66491   -0.07614
  147 Torsion                 13    14    16    15           0.00000    0.00000
  148 Torsion                 14    10    12    16           0.00000    0.00000

 ==============================================================================
                                internuclear distances
 ------------------------------------------------------------------------------
       center one      |      center two      | atomic units |  angstroms
 ------------------------------------------------------------------------------
    2 C                |   1 H                |     2.07994  |     1.10066
    4 C                |   2 C                |     3.07028  |     1.62472
    4 C                |   3 H                |     2.07994  |     1.10066
    6 C                |   2 C                |     2.83974  |     1.50273
    6 C                |   5 H                |     2.06905  |     1.09490
    8 C                |   4 C                |     2.83974  |     1.50273
    8 C                |   7 H                |     2.06905  |     1.09490
   10 C                |   2 C                |     2.96995  |     1.57163
   10 C                |   9 H                |     2.07511  |     1.09810
   12 C                |   4 C                |     2.96995  |     1.57163
   12 C                |  10 C                |     2.91816  |     1.54422
   12 C                |  11 H                |     2.07511  |     1.09810
   14 C                |   6 C                |     2.83974  |     1.50273
   14 C                |  10 C                |     2.96995  |     1.57163
   14 C                |  13 H                |     2.07994  |     1.10066
   16 C                |   8 C                |     2.83974  |     1.50273
   16 C                |  12 C                |     2.96995  |     1.57163
   16 C                |  14 C                |     3.07028  |     1.62472
   16 C                |  15 H                |     2.07994  |     1.10066
 ------------------------------------------------------------------------------
                         number of included internuclear distances:         19
 ==============================================================================



 ==============================================================================
                                 internuclear angles
 ------------------------------------------------------------------------------
        center 1       |       center 2       |       center 3       |  degrees
 ------------------------------------------------------------------------------
    1 H                |   2 C                |   4 C                |   115.63
    1 H                |   2 C                |   6 C                |   122.31
    1 H                |   2 C                |  10 C                |   125.04
    4 C                |   2 C                |   6 C                |   110.10
    4 C                |   2 C                |  10 C                |    88.53
    6 C                |   2 C                |  10 C                |    88.21
    2 C                |   4 C                |   3 H                |   115.63
    2 C                |   4 C                |   8 C                |   110.10
    2 C                |   4 C                |  12 C                |    88.53
    3 H                |   4 C                |   8 C                |   122.31
    3 H                |   4 C                |  12 C                |   125.04
    8 C                |   4 C                |  12 C                |    88.21
    2 C                |   6 C                |   5 H                |   132.87
    2 C                |   6 C                |  14 C                |    91.01
    5 H                |   6 C                |  14 C                |   132.87
    4 C                |   8 C                |   7 H                |   132.87
    4 C                |   8 C                |  16 C                |    91.01
    7 H                |   8 C                |  16 C                |   132.87
    2 C                |  10 C                |   9 H                |   124.06
    2 C                |  10 C                |  12 C                |    91.47
    2 C                |  10 C                |  14 C                |    86.01
    9 H                |  10 C                |  12 C                |   128.01
    9 H                |  10 C                |  14 C                |   124.06
   12 C                |  10 C                |  14 C                |    91.47
    4 C                |  12 C                |  10 C                |    91.47
    4 C                |  12 C                |  11 H                |   124.06
    4 C                |  12 C                |  16 C                |    86.01
   10 C                |  12 C                |  11 H                |   128.01
   10 C                |  12 C                |  16 C                |    91.47
   11 H                |  12 C                |  16 C                |   124.06
    6 C                |  14 C                |  10 C                |    88.21
    6 C                |  14 C                |  13 H                |   122.31
    6 C                |  14 C                |  16 C                |   110.10
   10 C                |  14 C                |  13 H                |   125.04
   10 C                |  14 C                |  16 C                |    88.53
   13 H                |  14 C                |  16 C                |   115.63
    8 C                |  16 C                |  12 C                |    88.21
    8 C                |  16 C                |  14 C                |   110.10
    8 C                |  16 C                |  15 H                |   122.31
   12 C                |  16 C                |  14 C                |    88.53
   12 C                |  16 C                |  15 H                |   125.04
   14 C                |  16 C                |  15 H                |   115.63
 ------------------------------------------------------------------------------
                            number of included internuclear angles:         42
 ==============================================================================




 Task  times  cpu:      120.5s     wall:       64.1s
 Summary of allocated global arrays
-----------------------------------
  No active global arrays



                         GA Statistics for process    0
                         ------------------------------

       create   destroy   get      put      acc     scatter   gather  read&inc
calls: 1431     1431     8.09e+05 1.12e+05 4.71e+05    0        0     3.46e+04 
number of processes/call 1.00e+00 1.00e+00 1.00e+00 0.00e+00 0.00e+00
bytes total:             1.25e+09 2.87e+08 5.37e+08 0.00e+00 0.00e+00 2.77e+05
bytes remote:            0.00e+00 0.00e+00 0.00e+00 0.00e+00 0.00e+00 0.00e+00
Max memory consumed for GA by this process: 13312000 bytes
MA_summarize_allocated_blocks: starting scan ...
MA_summarize_allocated_blocks: scan completed: 0 heap blocks, 0 stack blocks
MA usage statistics:

	allocation statistics:
					      heap	     stack
					      ----	     -----
	current number of blocks	         0	         0
	maximum number of blocks	        26	        55
	current total bytes		         0	         0
	maximum total bytes		 442257760	  33123816
	maximum total K-bytes		    442258	     33124
	maximum total M-bytes		       443	        34


                                NWChem Input Module
                                -------------------





                                     CITATION
                                     --------
                Please cite the following reference when publishing
                           results obtained with NWChem:

                 M. Valiev, E.J. Bylaska, N. Govind, K. Kowalski,
              T.P. Straatsma, H.J.J. van Dam, D. Wang, J. Nieplocha,
                        E. Apra, T.L. Windus, W.A. de Jong
                 "NWChem: a comprehensive and scalable open-source
                  solution for large scale molecular simulations"
                      Comput. Phys. Commun. 181, 1477 (2010)
                           doi:10.1016/j.cpc.2010.04.018

                                      AUTHORS
                                      -------
          E. Apra, E. J. Bylaska, W. A. de Jong, N. Govind, K. Kowalski,
       T. P. Straatsma, M. Valiev, H. J. J. van Dam, D. Wang, T. L. Windus,
        J. Hammond, J. Autschbach, K. Bhaskaran-Nair, J. Brabec, K. Lopata,
    S. A. Fischer, S. Krishnamoorthy, M. Jacquelin, W. Ma, M. Klemm, O. Villa,
      Y. Chen, V. Anisimov, F. Aquino, S. Hirata, M. T. Hackler, V. Konjkov,
            D. Mejia-Rodriguez, T. Risthaus, M. Malagoli, A. Marenich,
   A. Otero-de-la-Roza, J. Mullin, P. Nichols, R. Peverati, J. Pittner, Y. Zhao,
        P.-D. Fan, A. Fonari, M. J. Williamson, R. J. Harrison, J. R. Rehr,
      M. Dupuis, D. Silverstein, D. M. A. Smith, J. Nieplocha, V. Tipparaju,
    M. Krishnan, B. E. Van Kuiken, A. Vazquez-Mayagoitia, L. Jensen, M. Swart,
      Q. Wu, T. Van Voorhis, A. A. Auer, M. Nooijen, L. D. Crosby, E. Brown,
      G. Cisneros, G. I. Fann, H. Fruchtl, J. Garza, K. Hirao, R. A. Kendall,
      J. A. Nichols, K. Tsemekhman, K. Wolinski, J. Anchell, D. E. Bernholdt,
      P. Borowski, T. Clark, D. Clerc, H. Dachsel, M. J. O. Deegan, K. Dyall,
    D. Elwood, E. Glendening, M. Gutowski, A. C. Hess, J. Jaffe, B. G. Johnson,
     J. Ju, R. Kobayashi, R. Kutteh, Z. Lin, R. Littlefield, X. Long, B. Meng,
      T. Nakajima, S. Niu, L. Pollack, M. Rosing, K. Glaesemann, G. Sandrone,
      M. Stave, H. Taylor, G. Thomas, J. H. van Lenthe, A. T. Wong, Z. Zhang.

 Total times  cpu:      120.8s     wall:       64.3s
