 argument  1 = triplet.nw
                                         
                                         


              Northwest Computational Chemistry Package (NWChem) 6.8
              ------------------------------------------------------


                    Environmental Molecular Sciences Laboratory
                       Pacific Northwest National Laboratory
                                Richland, WA 99352

                              Copyright (c) 1994-2017
                       Pacific Northwest National Laboratory
                            Battelle Memorial Institute

             NWChem is an open-source computational chemistry package
                        distributed under the terms of the
                      Educational Community License (ECL) 2.0
             A copy of the license is included with this distribution
                              in the LICENSE.TXT file

                                  ACKNOWLEDGMENT
                                  --------------

            This software and its documentation were developed at the
            EMSL at Pacific Northwest National Laboratory, a multiprogram
            national laboratory, operated for the U.S. Department of Energy
            by Battelle under Contract Number DE-AC05-76RL01830. Support
            for this work was provided by the Department of Energy Office
            of Biological and Environmental Research, Office of Basic
            Energy Sciences, and the Office of Advanced Scientific Computing.


           Job information
           ---------------

    hostname        = vladimir-Kubuntu-16
    program         = nwchem
    date            = Sat Dec 28 15:15:23 2019

    compiled        = Wed_Aug_15_19:14:19_2018
    source          = /home/edo/debichem-team/nwchem/nwchem-6.8.1
    nwchem branch   = 6.8.1
    nwchem revision = v6.8-133-ge032219
    ga revision     = 5.6.5
    use scalapack   = T
    input           = triplet.nw
    prefix          = triplet.
    data base       = ./triplet.db
    status          = startup
    nproc           =        1
    time left       =     -1s



           Memory information
           ------------------

    heap     =   13107200 doubles =    100.0 Mbytes
    stack    =  131071997 doubles =   1000.0 Mbytes
    global   =  262144000 doubles =   2000.0 Mbytes (distinct from heap & stack)
    total    =  406323197 doubles =   3100.0 Mbytes
    verify   = yes
    hardfail = no 


           Directory information
           ---------------------

  0 permanent = .
  0 scratch   = .




                                NWChem Input Module
                                -------------------


             cubane T-biradical UHF/def2-SVP DFT geometry optimization
             ---------------------------------------------------------

 Scaling coordinates for geometry "geometry" by  1.889725989
 (inverse scale =  0.529177249)

 Turning off AUTOSYM since
 SYMMETRY directive was detected!


          ------
          auto-z
          ------


                             Geometry "geometry" -> ""
                             -------------------------

 Output coordinates in angstroms (scale by  1.889725989 to convert to a.u.)

  No.       Tag          Charge          X              Y              Z
 ---- ---------------- ---------- -------------- -------------- --------------
    1 H                    1.0000     2.04891114    -1.28385753     0.01452527
    2 C                    6.0000     1.07007002    -0.81239360    -0.05733771
    3 H                    1.0000     2.04891114     1.28385753     0.01452527
    4 C                    6.0000     1.07007002     0.81239360    -0.05733771
    5 H                    1.0000     0.00000000    -1.61019161    -2.01624113
    6 C                    6.0000     0.00000000    -1.32325628    -0.97149624
    7 H                    1.0000     0.00000000     1.61019161    -2.01624113
    8 C                    6.0000     0.00000000     1.32325628    -0.97149624
    9 H                    1.0000     0.00000000    -1.43928333     1.94870807
   10 C                    6.0000     0.00000000    -0.77017176     1.09258543
   11 H                    1.0000     0.00000000     1.43928333     1.94870807
   12 C                    6.0000     0.00000000     0.77017176     1.09258543
   13 H                    1.0000    -2.04891114    -1.28385753     0.01452527
   14 C                    6.0000    -1.07007002    -0.81239360    -0.05733771
   15 H                    1.0000    -2.04891114     1.28385753     0.01452527
   16 C                    6.0000    -1.07007002     0.81239360    -0.05733771

      Atomic Mass 
      ----------- 

      H                  1.007825
      C                 12.000000


 Effective nuclear repulsion energy (a.u.)     359.0052734129

            Nuclear Dipole moment (a.u.) 
            ----------------------------
        X                 Y               Z
 ---------------- ---------------- ----------------
     0.0000000000     0.0000000000    -0.0000000000

      Symmetry information
      --------------------

 Group name             C2v       
 Group number             16
 Group order               4
 No. of unique centers     6

      Symmetry unique atoms

     1    2    5    6    9   10



                                Z-matrix (autoz)
                                -------- 

 Units are Angstrom for bonds and degrees for angles

      Type          Name      I     J     K     L     M      Value
      ----------- --------  ----- ----- ----- ----- ----- ----------
    1 Stretch                  1     2                       1.08884
    2 Stretch                  2     4                       1.62479
    3 Stretch                  2     6                       1.49724
    4 Stretch                  2    10                       1.57135
    5 Stretch                  3     4                       1.08884
    6 Stretch                  4     8                       1.49724
    7 Stretch                  4    12                       1.57135
    8 Stretch                  5     6                       1.08343
    9 Stretch                  6    14                       1.49724
   10 Stretch                  7     8                       1.08343
   11 Stretch                  8    16                       1.49724
   12 Stretch                  9    10                       1.08658
   13 Stretch                 10    12                       1.54034
   14 Stretch                 10    14                       1.57135
   15 Stretch                 11    12                       1.08658
   16 Stretch                 12    16                       1.57135
   17 Stretch                 13    14                       1.08884
   18 Stretch                 14    16                       1.62479
   19 Stretch                 15    16                       1.08884
   20 Bend                     1     2     4               115.65788
   21 Bend                     1     2     6               122.34746
   22 Bend                     1     2    10               125.13645
   23 Bend                     2     4     3               115.65788
   24 Bend                     2     4     8               109.95023
   25 Bend                     2     4    12                88.46029
   26 Bend                     2     6     5               132.77542
   27 Bend                     2     6    14                91.23672
   28 Bend                     2    10     9               124.05898
   29 Bend                     2    10    12                91.53971
   30 Bend                     2    10    14                85.84142
   31 Bend                     3     4     8               122.34746
   32 Bend                     3     4    12               125.13645
   33 Bend                     4     2     6               109.95023
   34 Bend                     4     2    10                88.46029
   35 Bend                     4     8     7               132.77542
   36 Bend                     4     8    16                91.23672
   37 Bend                     4    12    10                91.53971
   38 Bend                     4    12    11               124.05898
   39 Bend                     4    12    16                85.84142
   40 Bend                     5     6    14               132.77542
   41 Bend                     6     2    10                88.23975
   42 Bend                     6    14    10                88.23975
   43 Bend                     6    14    13               122.34746
   44 Bend                     6    14    16               109.95023
   45 Bend                     7     8    16               132.77542
   46 Bend                     8     4    12                88.23975
   47 Bend                     8    16    12                88.23975
   48 Bend                     8    16    14               109.95023
   49 Bend                     8    16    15               122.34746
   50 Bend                     9    10    12               128.00978
   51 Bend                     9    10    14               124.05898
   52 Bend                    10    12    11               128.00978
   53 Bend                    10    12    16                91.53971
   54 Bend                    10    14    13               125.13645
   55 Bend                    10    14    16                88.46029
   56 Bend                    11    12    16               124.05898
   57 Bend                    12    10    14                91.53971
   58 Bend                    12    16    14                88.46029
   59 Bend                    12    16    15               125.13645
   60 Bend                    13    14    16               115.65788
   61 Bend                    14    16    15               115.65788
   62 Torsion                  1     2     4     3           0.00000
   63 Torsion                  1     2     4     8         143.69172
   64 Torsion                  1     2     4    12        -128.74104
   65 Torsion                  1     2     6     5         -48.06687
   66 Torsion                  1     2     6    14         150.95347
   67 Torsion                  1     2    10     9         -18.90400
   68 Torsion                  1     2    10    12         120.71381
   69 Torsion                  1     2    10    14        -147.85388
   70 Torsion                  2     4     8     7         -92.75127
   71 Torsion                  2     4     8    16          68.22839
   72 Torsion                  2     4    12    10           0.00000
   73 Torsion                  2     4    12    11         139.61781
   74 Torsion                  2     4    12    16         -91.43231
   75 Torsion                  2     6    14    10         -19.49328
   76 Torsion                  2     6    14    13        -150.95347
   77 Torsion                  2     6    14    16          68.22839
   78 Torsion                  2    10    12     4           0.00000
   79 Torsion                  2    10    12    11        -137.06004
   80 Torsion                  2    10    12    16          85.87992
   81 Torsion                  2    10    14     6          18.58562
   82 Torsion                  2    10    14    13         147.85388
   83 Torsion                  2    10    14    16         -91.43231
   84 Torsion                  3     4     2     6        -143.69172
   85 Torsion                  3     4     2    10         128.74104
   86 Torsion                  3     4     8     7          48.06687
   87 Torsion                  3     4     8    16        -150.95347
   88 Torsion                  3     4    12    10        -120.71381
   89 Torsion                  3     4    12    11          18.90400
   90 Torsion                  3     4    12    16         147.85388
   91 Torsion                  4     2     6     5          92.75127
   92 Torsion                  4     2     6    14         -68.22839
   93 Torsion                  4     2    10     9        -139.61781
   94 Torsion                  4     2    10    12           0.00000
   95 Torsion                  4     2    10    14          91.43231
   96 Torsion                  4     8    16    12          19.49328
   97 Torsion                  4     8    16    14         -68.22839
   98 Torsion                  4     8    16    15         150.95347
   99 Torsion                  4    12    10     9         137.06004
  100 Torsion                  4    12    10    14         -85.87992
  101 Torsion                  4    12    16     8         -18.58562
  102 Torsion                  4    12    16    14          91.43231
  103 Torsion                  4    12    16    15        -147.85388
  104 Torsion                  5     6     2    10        -179.52706
  105 Torsion                  5     6    14    10         179.52706
  106 Torsion                  5     6    14    13          48.06687
  107 Torsion                  5     6    14    16         -92.75127
  108 Torsion                  6     2     4     8           0.00000
  109 Torsion                  6     2     4    12          87.56723
  110 Torsion                  6     2    10     9         110.36426
  111 Torsion                  6     2    10    12        -110.01793
  112 Torsion                  6     2    10    14         -18.58562
  113 Torsion                  6    14    10     9        -110.36426
  114 Torsion                  6    14    10    12         110.01793
  115 Torsion                  6    14    16     8           0.00000
  116 Torsion                  6    14    16    12         -87.56723
  117 Torsion                  6    14    16    15         143.69172
  118 Torsion                  7     8     4    12         179.52706
  119 Torsion                  7     8    16    12        -179.52706
  120 Torsion                  7     8    16    14          92.75127
  121 Torsion                  7     8    16    15         -48.06687
  122 Torsion                  8     4     2    10         -87.56723
  123 Torsion                  8     4    12    10         110.01793
  124 Torsion                  8     4    12    11        -110.36426
  125 Torsion                  8     4    12    16          18.58562
  126 Torsion                  8    16    12    10        -110.01793
  127 Torsion                  8    16    12    11         110.36426
  128 Torsion                  8    16    14    10          87.56723
  129 Torsion                  8    16    14    13        -143.69172
  130 Torsion                  9    10    12    11           0.00000
  131 Torsion                  9    10    12    16        -137.06004
  132 Torsion                  9    10    14    13          18.90400
  133 Torsion                  9    10    14    16         139.61781
  134 Torsion                 10     2     4    12           0.00000
  135 Torsion                 10     2     6    14          19.49328
  136 Torsion                 10    12    16    14           0.00000
  137 Torsion                 10    12    16    15         120.71381
  138 Torsion                 10    14    16    12           0.00000
  139 Torsion                 10    14    16    15        -128.74104
  140 Torsion                 11    12    10    14         137.06004
  141 Torsion                 11    12    16    14        -139.61781
  142 Torsion                 11    12    16    15         -18.90400
  143 Torsion                 12     4     8    16         -19.49328
  144 Torsion                 12    10    14    13        -120.71381
  145 Torsion                 12    10    14    16          -0.00000
  146 Torsion                 12    16    14    13         128.74104
  147 Torsion                 13    14    16    15           0.00000
  148 Torsion                 14    10    12    16           0.00000


            XYZ format geometry
            -------------------
    16
 geometry
 H                     2.04891114    -1.28385753     0.01452527
 C                     1.07007002    -0.81239360    -0.05733771
 H                     2.04891114     1.28385753     0.01452527
 C                     1.07007002     0.81239360    -0.05733771
 H                     0.00000000    -1.61019161    -2.01624113
 C                     0.00000000    -1.32325628    -0.97149624
 H                     0.00000000     1.61019161    -2.01624113
 C                     0.00000000     1.32325628    -0.97149624
 H                     0.00000000    -1.43928333     1.94870807
 C                     0.00000000    -0.77017176     1.09258543
 H                     0.00000000     1.43928333     1.94870807
 C                     0.00000000     0.77017176     1.09258543
 H                    -2.04891114    -1.28385753     0.01452527
 C                    -1.07007002    -0.81239360    -0.05733771
 H                    -2.04891114     1.28385753     0.01452527
 C                    -1.07007002     0.81239360    -0.05733771

 ==============================================================================
                                internuclear distances
 ------------------------------------------------------------------------------
       center one      |      center two      | atomic units |  angstroms
 ------------------------------------------------------------------------------
    2 C                |   1 H                |     2.05761  |     1.08884
    4 C                |   2 C                |     3.07040  |     1.62479
    4 C                |   3 H                |     2.05761  |     1.08884
    6 C                |   2 C                |     2.82937  |     1.49724
    6 C                |   5 H                |     2.04739  |     1.08343
    8 C                |   4 C                |     2.82937  |     1.49724
    8 C                |   7 H                |     2.04739  |     1.08343
   10 C                |   2 C                |     2.96943  |     1.57135
   10 C                |   9 H                |     2.05334  |     1.08658
   12 C                |   4 C                |     2.96943  |     1.57135
   12 C                |  10 C                |     2.91083  |     1.54034
   12 C                |  11 H                |     2.05334  |     1.08658
   14 C                |   6 C                |     2.82937  |     1.49724
   14 C                |  10 C                |     2.96943  |     1.57135
   14 C                |  13 H                |     2.05761  |     1.08884
   16 C                |   8 C                |     2.82937  |     1.49724
   16 C                |  12 C                |     2.96943  |     1.57135
   16 C                |  14 C                |     3.07040  |     1.62479
   16 C                |  15 H                |     2.05761  |     1.08884
 ------------------------------------------------------------------------------
                         number of included internuclear distances:         19
 ==============================================================================



 ==============================================================================
                                 internuclear angles
 ------------------------------------------------------------------------------
        center 1       |       center 2       |       center 3       |  degrees
 ------------------------------------------------------------------------------
    1 H                |   2 C                |   4 C                |   115.66
    1 H                |   2 C                |   6 C                |   122.35
    1 H                |   2 C                |  10 C                |   125.14
    4 C                |   2 C                |   6 C                |   109.95
    4 C                |   2 C                |  10 C                |    88.46
    6 C                |   2 C                |  10 C                |    88.24
    2 C                |   4 C                |   3 H                |   115.66
    2 C                |   4 C                |   8 C                |   109.95
    2 C                |   4 C                |  12 C                |    88.46
    3 H                |   4 C                |   8 C                |   122.35
    3 H                |   4 C                |  12 C                |   125.14
    8 C                |   4 C                |  12 C                |    88.24
    2 C                |   6 C                |   5 H                |   132.78
    2 C                |   6 C                |  14 C                |    91.24
    5 H                |   6 C                |  14 C                |   132.78
    4 C                |   8 C                |   7 H                |   132.78
    4 C                |   8 C                |  16 C                |    91.24
    7 H                |   8 C                |  16 C                |   132.78
    2 C                |  10 C                |   9 H                |   124.06
    2 C                |  10 C                |  12 C                |    91.54
    2 C                |  10 C                |  14 C                |    85.84
    9 H                |  10 C                |  12 C                |   128.01
    9 H                |  10 C                |  14 C                |   124.06
   12 C                |  10 C                |  14 C                |    91.54
    4 C                |  12 C                |  10 C                |    91.54
    4 C                |  12 C                |  11 H                |   124.06
    4 C                |  12 C                |  16 C                |    85.84
   10 C                |  12 C                |  11 H                |   128.01
   10 C                |  12 C                |  16 C                |    91.54
   11 H                |  12 C                |  16 C                |   124.06
    6 C                |  14 C                |  10 C                |    88.24
    6 C                |  14 C                |  13 H                |   122.35
    6 C                |  14 C                |  16 C                |   109.95
   10 C                |  14 C                |  13 H                |   125.14
   10 C                |  14 C                |  16 C                |    88.46
   13 H                |  14 C                |  16 C                |   115.66
    8 C                |  16 C                |  12 C                |    88.24
    8 C                |  16 C                |  14 C                |   109.95
    8 C                |  16 C                |  15 H                |   122.35
   12 C                |  16 C                |  14 C                |    88.46
   12 C                |  16 C                |  15 H                |   125.14
   14 C                |  16 C                |  15 H                |   115.66
 ------------------------------------------------------------------------------
                            number of included internuclear angles:         42
 ==============================================================================



  library name resolved from: environment
  library file name is: </home/vladimir/bin/nwchem-6.8/src/basis/libraries/>
  
                      Basis "ao basis" -> "" (cartesian)
                      -----
  H (Hydrogen)
  ------------
            Exponent  Coefficients 
       -------------- ---------------------------------------------------------
  1 S  1.30107010E+01  0.019682
  1 S  1.96225720E+00  0.137965
  1 S  4.44537960E-01  0.478319

  2 S  1.21949620E-01  1.000000

  3 P  8.00000000E-01  1.000000

  C (Carbon)
  ----------
            Exponent  Coefficients 
       -------------- ---------------------------------------------------------
  1 S  1.23840169E+03  0.005457
  1 S  1.86290050E+02  0.040638
  1 S  4.22511763E+01  0.180256
  1 S  1.16765579E+01  0.463151
  1 S  3.59305065E+00  0.440872

  2 S  4.02451474E-01  1.000000

  3 S  1.30901827E-01  1.000000

  4 P  9.46809706E+00  0.038388
  4 P  2.01035451E+00  0.211170
  4 P  5.47710047E-01  0.513282

  5 P  1.52686138E-01  1.000000

  6 D  8.00000000E-01  1.000000



 Summary of "ao basis" -> "" (cartesian)
 ------------------------------------------------------------------------------
       Tag                 Description            Shells   Functions and Types
 ---------------- ------------------------------  ------  ---------------------
 H                          def2-SVP                 3        5   2s1p
 C                          def2-SVP                 6       15   3s2p1d




                           NWChem Geometry Optimization
                           ----------------------------




             cubane T-biradical UHF/def2-SVP DFT geometry optimization


 maximum gradient threshold         (gmax) =   0.000450
 rms gradient threshold             (grms) =   0.000300
 maximum cartesian step threshold   (xmax) =   0.001800
 rms cartesian step threshold       (xrms) =   0.001200
 fixed trust radius                (trust) =   0.300000
 maximum step size to saddle      (sadstp) =   0.100000
 energy precision                  (eprec) =   5.0D-06
 maximum number of steps          (nptopt) =   20
 initial hessian option           (inhess) =    0
 line search option               (linopt) =    1
 hessian update option            (modupd) =    1
 saddle point option              (modsad) =    0
 initial eigen-mode to follow     (moddir) =    0
 initial variable to follow       (vardir) =    0
 follow first negative mode     (firstneg) =    T
 apply conjugacy                    (opcg) =    F
 source of zmatrix                         =   autoz   


          -------------------
          Energy Minimization
          -------------------


 Names of Z-matrix variables 
    1              2              3              4              5         
    6              7              8              9             10         
   11             12             13             14             15         
   16             17             18             19             20         
   21             22             23             24             25         
   26             27             28             29             30         
   31             32             33             34             35         
   36             37             38             39             40         
   41             42             43             44             45         
   46             47             48             49             50         
   51             52             53             54             55         
   56             57             58             59             60         
   61             62             63             64             65         
   66             67             68             69             70         
   71             72             73             74             75         
   76             77             78             79             80         
   81             82             83             84             85         
   86             87             88             89             90         
   91             92             93             94             95         
   96             97             98             99            100         
  101            102            103            104            105         
  106            107            108            109            110         
  111            112            113            114            115         
  116            117            118            119            120         
  121            122            123            124            125         
  126            127            128            129            130         
  131            132            133            134            135         
  136            137            138            139            140         
  141            142            143            144            145         
  146            147            148         

 Variables with the same non-blank name are constrained to be equal


 Using diagonal initial Hessian 
 Scaling for Hessian diagonals: bonds = 1.00  angles = 0.25  torsions = 0.10

          --------
          Step   0
          --------


                         Geometry "geometry" -> "geometry"
                         ---------------------------------

 Output coordinates in angstroms (scale by  1.889725989 to convert to a.u.)

  No.       Tag          Charge          X              Y              Z
 ---- ---------------- ---------- -------------- -------------- --------------
    1 H                    1.0000     2.04891114    -1.28385753     0.01452527
    2 C                    6.0000     1.07007002    -0.81239360    -0.05733771
    3 H                    1.0000     2.04891114     1.28385753     0.01452527
    4 C                    6.0000     1.07007002     0.81239360    -0.05733771
    5 H                    1.0000     0.00000000    -1.61019161    -2.01624113
    6 C                    6.0000     0.00000000    -1.32325628    -0.97149624
    7 H                    1.0000     0.00000000     1.61019161    -2.01624113
    8 C                    6.0000     0.00000000     1.32325628    -0.97149624
    9 H                    1.0000     0.00000000    -1.43928333     1.94870807
   10 C                    6.0000     0.00000000    -0.77017176     1.09258543
   11 H                    1.0000     0.00000000     1.43928333     1.94870807
   12 C                    6.0000     0.00000000     0.77017176     1.09258543
   13 H                    1.0000    -2.04891114    -1.28385753     0.01452527
   14 C                    6.0000    -1.07007002    -0.81239360    -0.05733771
   15 H                    1.0000    -2.04891114     1.28385753     0.01452527
   16 C                    6.0000    -1.07007002     0.81239360    -0.05733771

      Atomic Mass 
      ----------- 

      H                  1.007825
      C                 12.000000


 Effective nuclear repulsion energy (a.u.)     359.0052734129

            Nuclear Dipole moment (a.u.) 
            ----------------------------
        X                 Y               Z
 ---------------- ---------------- ----------------
     0.0000000000     0.0000000000    -0.0000000000

      Symmetry information
      --------------------

 Group name             C2v       
 Group number             16
 Group order               4
 No. of unique centers     6

      Symmetry unique atoms

     1    2    5    6    9   10


                                 NWChem DFT Module
                                 -----------------


             cubane T-biradical UHF/def2-SVP DFT geometry optimization




 Summary of "ao basis" -> "ao basis" (cartesian)
 ------------------------------------------------------------------------------
       Tag                 Description            Shells   Functions and Types
 ---------------- ------------------------------  ------  ---------------------
 H                          def2-SVP                 3        5   2s1p
 C                          def2-SVP                 6       15   3s2p1d


      Symmetry analysis of basis
      --------------------------

        a1         50
        a2         30
        b1         30
        b2         50

  Caching 1-el integrals 

            General Information
            -------------------
          SCF calculation type: DFT
          Wavefunction type:  restricted open shell.
          No. of atoms     :    16
          No. of electrons :    56
           Alpha electrons :    29
            Beta electrons :    27
          Charge           :     0
          Spin multiplicity:     3
          Use of symmetry is: on ; symmetry adaption is: on 
          Maximum number of iterations:  30
          AO basis - number of functions:   160
                     number of shells:    72
          Convergence on energy requested:  1.00D-06
          Convergence on density requested:  1.00D-05
          Convergence on gradient requested:  5.00D-04

              XC Information
              --------------
                         B3LYP Method XC Potential
                     Hartree-Fock (Exact) Exchange  0.200          
                        Slater Exchange Functional  0.800 local    
                    Becke 1988 Exchange Functional  0.720 non-local
              Lee-Yang-Parr Correlation Functional  0.810          
                  VWN I RPA Correlation Functional  0.190 local    

             Grid Information
             ----------------
          Grid used for XC integration:  medium    
          Radial quadrature: Mura-Knowles        
          Angular quadrature: Lebedev. 
          Tag              B.-S. Rad. Rad. Pts. Rad. Cut. Ang. Pts.
          ---              ---------- --------- --------- ---------
          H                   0.35       45          12.0       434
          C                   0.70       49          11.0       434
          Grid pruning is: on 
          Number of quadrature shells:   282
          Spatial weights used:  Erf1

          Convergence Information
          -----------------------
          Convergence aids based upon iterative change in 
          total energy or number of iterations. 
          Levelshifting, if invoked, occurs when the 
          HOMO/LUMO gap drops below (HL_TOL):  1.00D-02
          DIIS, if invoked, will attempt to extrapolate 
          using up to (NFOCK): 10 stored Fock matrices.

                    Damping( 0%)  Levelshifting(0.5)       DIIS
                  --------------- ------------------- ---------------
          dE  on:    start            ASAP                start   
          dE off:    2 iters         30 iters            30 iters 


      Screening Tolerance Information
      -------------------------------
          Density screening/tol_rho:  1.00D-10
          AO Gaussian exp screening on grid/accAOfunc:  14
          CD Gaussian exp screening on grid/accCDfunc:  20
          XC Gaussian exp screening on grid/accXCfunc:  20
          Schwarz screening/accCoul:  1.00D-08


      Superposition of Atomic Density Guess
      -------------------------------------

 Sum of atomic energies:        -304.99271631

      Non-variational initial energy
      ------------------------------

 Total energy =    -311.197410
 1-e energy   =   -1120.605754
 2-e energy   =     450.403070
 HOMO         =      -0.171384
 LUMO         =      -0.113482


      Symmetry analysis of molecular orbitals - initial
      -------------------------------------------------

  Numbering of irreducible representations: 

     1 a1          2 a2          3 b1          4 b2      

  Orbital symmetries:

     1 a1          2 b2          3 b1          4 a1          5 a2      
     6 b2          7 a1          8 b2          9 a1         10 b2      
    11 b1         12 a1         13 b2         14 a2         15 a1      
    16 a1         17 b2         18 a1         19 b2         20 b1      
    21 a1         22 b1         23 b1         24 a2         25 a1      
    26 b2         27 a2         28 b2         29 a1         30 a1      
    31 b1         32 a1         33 b2         34 a1         35 a2      
    36 b1         37 b2         38 a1         39 b2      



 ----------------------------------------------
         Quadratically convergent ROKS

 Convergence threshold     :          5.000E-04
 Maximum no. of iterations :           30
 Final Fock-matrix accuracy:          1.000E-08
 ----------------------------------------------


 Integral file          = ./triplet.aoints.0
 Record size in doubles =  65536        No. of integs per rec  =  43688
 Max. records in memory =    835        Max. records in file   = 114799
 No. of bits per label  =      8        No. of bits per value  =     64


 #quartets = 8.874D+05 #integrals = 1.926D+07 #direct =  0.0% #cached =100.0%


 Grid_pts file          = ./triplet.gridpts.0
 Record size in doubles =  12289        No. of grid_pts per rec  =   3070
 Max. records in memory =     45        Max. recs in file   =    612216


              iter       energy          gnorm     gmax       time
             ----- ------------------- --------- --------- --------
                 1     -309.1056774924  1.16D+00  1.94D-01      4.8
                 2     -309.1845366682  2.28D-01  4.26D-02      6.8
                 3     -309.1886870129  2.36D-02  4.21D-03     10.1
                 4     -309.1887836194  2.27D-03  3.49D-04     14.9
                 5     -309.1887845727  3.14D-04  5.33D-05     19.7


         Total DFT energy =     -309.188784572677
      One electron energy =    -1127.215582401368
           Coulomb energy =      496.467985750809
    Exchange-Corr. energy =      -37.446461335003
 Nuclear repulsion energy =      359.005273412884

 Numeric. integr. density =       56.000001256036

     Total iterative time =     18.1s



                       DFT Final Molecular Orbital Analysis
                       ------------------------------------

 Vector    1  Occ=2.000000D+00  E=-1.020101D+01  Symmetry=b2
              MO Center= -1.6D-12, -1.8D-13, -5.8D-02, r^2= 1.8D+00
   Bfn.  Coefficient  Atom+Function         Bfn.  Coefficient  Atom+Function  
  ----- ------------  ---------------      ----- ------------  ---------------
     6      0.493661   2 C  s                26     -0.493661   4 C  s         
   126      0.493661  14 C  s               146     -0.493661  16 C  s         

 Vector    2  Occ=2.000000D+00  E=-1.020096D+01  Symmetry=a1
              MO Center=  2.3D-16,  1.8D-13, -5.7D-02, r^2= 1.8D+00
   Bfn.  Coefficient  Atom+Function         Bfn.  Coefficient  Atom+Function  
  ----- ------------  ---------------      ----- ------------  ---------------
     6      0.493551   2 C  s                26      0.493551   4 C  s         
   126      0.493551  14 C  s               146      0.493551  16 C  s         

 Vector    3  Occ=2.000000D+00  E=-1.020094D+01  Symmetry=a2
              MO Center=  1.6D-12, -5.8D-17, -5.7D-02, r^2= 1.8D+00
   Bfn.  Coefficient  Atom+Function         Bfn.  Coefficient  Atom+Function  
  ----- ------------  ---------------      ----- ------------  ---------------
     6      0.493722   2 C  s                26     -0.493722   4 C  s         
   126     -0.493722  14 C  s               146      0.493722  16 C  s         

 Vector    4  Occ=2.000000D+00  E=-1.020089D+01  Symmetry=b1
              MO Center=  9.8D-15, -2.4D-16, -5.7D-02, r^2= 1.8D+00
   Bfn.  Coefficient  Atom+Function         Bfn.  Coefficient  Atom+Function  
  ----- ------------  ---------------      ----- ------------  ---------------
     6      0.493608   2 C  s                26      0.493608   4 C  s         
   126     -0.493608  14 C  s               146     -0.493608  16 C  s         

 Vector    5  Occ=2.000000D+00  E=-1.019559D+01  Symmetry=a1
              MO Center= -9.3D-15,  1.5D-14,  1.1D+00, r^2= 6.2D-01
   Bfn.  Coefficient  Atom+Function         Bfn.  Coefficient  Atom+Function  
  ----- ------------  ---------------      ----- ------------  ---------------
    86      0.698026  10 C  s               106      0.698026  12 C  s         

 Vector    6  Occ=2.000000D+00  E=-1.019553D+01  Symmetry=b2
              MO Center=  4.8D-19, -1.2D-14,  1.1D+00, r^2= 6.2D-01
   Bfn.  Coefficient  Atom+Function         Bfn.  Coefficient  Atom+Function  
  ----- ------------  ---------------      ----- ------------  ---------------
    86      0.698275  10 C  s               106     -0.698275  12 C  s         

 Vector    7  Occ=2.000000D+00  E=-1.019272D+01  Symmetry=b2
              MO Center=  5.8D-20, -1.0D-15, -9.7D-01, r^2= 1.8D+00
   Bfn.  Coefficient  Atom+Function         Bfn.  Coefficient  Atom+Function  
  ----- ------------  ---------------      ----- ------------  ---------------
    46      0.698026   6 C  s                66     -0.698026   8 C  s         

 Vector    8  Occ=2.000000D+00  E=-1.019258D+01  Symmetry=a1
              MO Center= -3.4D-17, -2.7D-15, -9.7D-01, r^2= 1.8D+00
   Bfn.  Coefficient  Atom+Function         Bfn.  Coefficient  Atom+Function  
  ----- ------------  ---------------      ----- ------------  ---------------
    46      0.698099   6 C  s                66      0.698099   8 C  s         

 Vector    9  Occ=2.000000D+00  E=-9.225465D-01  Symmetry=a1
              MO Center= -1.8D-16, -3.7D-15,  1.7D-01, r^2= 1.7D+00
   Bfn.  Coefficient  Atom+Function         Bfn.  Coefficient  Atom+Function  
  ----- ------------  ---------------      ----- ------------  ---------------
    87      0.195278  10 C  s               107      0.195278  12 C  s         
     7      0.169843   2 C  s                27      0.169843   4 C  s         
   127      0.169843  14 C  s               147      0.169843  16 C  s         

 Vector   10  Occ=2.000000D+00  E=-7.727431D-01  Symmetry=b2
              MO Center=  6.6D-16,  5.1D-16, -1.4D-01, r^2= 2.5D+00
   Bfn.  Coefficient  Atom+Function         Bfn.  Coefficient  Atom+Function  
  ----- ------------  ---------------      ----- ------------  ---------------
    88      0.299526  10 C  s               108     -0.299526  12 C  s         
    47      0.230981   6 C  s                67     -0.230981   8 C  s         
     7      0.185620   2 C  s                27     -0.185620   4 C  s         
   127      0.185620  14 C  s               147     -0.185620  16 C  s         

 Vector   11  Occ=2.000000D+00  E=-7.058412D-01  Symmetry=b1
              MO Center=  1.6D-16,  5.2D-17,  1.9D-02, r^2= 2.8D+00
   Bfn.  Coefficient  Atom+Function         Bfn.  Coefficient  Atom+Function  
  ----- ------------  ---------------      ----- ------------  ---------------
     7      0.250656   2 C  s                27      0.250656   4 C  s         
   127     -0.250656  14 C  s               147     -0.250656  16 C  s         

 Vector   12  Occ=2.000000D+00  E=-6.839449D-01  Symmetry=a1
              MO Center= -4.7D-17, -4.5D-17,  1.0D-01, r^2= 3.0D+00
   Bfn.  Coefficient  Atom+Function         Bfn.  Coefficient  Atom+Function  
  ----- ------------  ---------------      ----- ------------  ---------------
    87     -0.247435  10 C  s               107     -0.247435  12 C  s         
    47      0.226236   6 C  s                67      0.226236   8 C  s         

 Vector   13  Occ=2.000000D+00  E=-5.722149D-01  Symmetry=b2
              MO Center= -9.2D-18, -2.2D-17, -1.6D-02, r^2= 4.3D+00
   Bfn.  Coefficient  Atom+Function         Bfn.  Coefficient  Atom+Function  
  ----- ------------  ---------------      ----- ------------  ---------------
    47      0.234658   6 C  s                67     -0.234658   8 C  s         
    87     -0.231686  10 C  s               107      0.231686  12 C  s         
    41      0.156629   5 H  s                61     -0.156629   7 H  s         
    81     -0.155037   9 H  s               101      0.155037  11 H  s         

 Vector   14  Occ=2.000000D+00  E=-5.720032D-01  Symmetry=a2
              MO Center= -4.9D-15, -1.5D-13, -1.0D-01, r^2= 3.9D+00
   Bfn.  Coefficient  Atom+Function         Bfn.  Coefficient  Atom+Function  
  ----- ------------  ---------------      ----- ------------  ---------------
     7      0.235656   2 C  s                27     -0.235656   4 C  s         
   127     -0.235656  14 C  s               147      0.235656  16 C  s         

 Vector   15  Occ=2.000000D+00  E=-5.475417D-01  Symmetry=a1
              MO Center= -1.0D-16,  2.5D-16, -1.1D-01, r^2= 4.2D+00
   Bfn.  Coefficient  Atom+Function         Bfn.  Coefficient  Atom+Function  
  ----- ------------  ---------------      ----- ------------  ---------------
    47      0.179348   6 C  s                67      0.179348   8 C  s         

 Vector   16  Occ=2.000000D+00  E=-5.261602D-01  Symmetry=a1
              MO Center= -1.3D-15, -3.9D-15,  3.0D-01, r^2= 4.3D+00
   Bfn.  Coefficient  Atom+Function         Bfn.  Coefficient  Atom+Function  
  ----- ------------  ---------------      ----- ------------  ---------------
    91      0.164162  10 C  pz              111      0.164162  12 C  pz        
    48      0.152126   6 C  s                68      0.152126   8 C  s         

 Vector   17  Occ=2.000000D+00  E=-4.710319D-01  Symmetry=b2
              MO Center=  3.6D-15,  6.8D-16,  5.8D-03, r^2= 5.2D+00
   Bfn.  Coefficient  Atom+Function         Bfn.  Coefficient  Atom+Function  
  ----- ------------  ---------------      ----- ------------  ---------------
    81      0.203222   9 H  s               101     -0.203222  11 H  s         
    41      0.199492   5 H  s                61     -0.199492   7 H  s         
    51     -0.181065   6 C  pz               71      0.181065   8 C  pz        

 Vector   18  Occ=2.000000D+00  E=-4.612085D-01  Symmetry=a1
              MO Center= -1.3D-17, -1.4D-16, -2.7D-01, r^2= 3.6D+00
   Bfn.  Coefficient  Atom+Function         Bfn.  Coefficient  Atom+Function  
  ----- ------------  ---------------      ----- ------------  ---------------
    90     -0.228329  10 C  py              110      0.228329  12 C  py        
    51      0.223035   6 C  pz               71      0.223035   8 C  pz        
    41     -0.179762   5 H  s                61     -0.179762   7 H  s         

 Vector   19  Occ=2.000000D+00  E=-4.517697D-01  Symmetry=b2
              MO Center=  1.4D-15,  3.5D-15, -6.2D-02, r^2= 4.5D+00
   Bfn.  Coefficient  Atom+Function         Bfn.  Coefficient  Atom+Function  
  ----- ------------  ---------------      ----- ------------  ---------------
     9      0.205459   2 C  px               29     -0.205459   4 C  px        
   129     -0.205459  14 C  px              149      0.205459  16 C  px        
     1      0.198596   1 H  s                21     -0.198596   3 H  s         
   121      0.198596  13 H  s               141     -0.198596  15 H  s         

 Vector   20  Occ=2.000000D+00  E=-4.284269D-01  Symmetry=b1
              MO Center=  7.9D-16, -7.4D-14,  1.0D-01, r^2= 3.1D+00
   Bfn.  Coefficient  Atom+Function         Bfn.  Coefficient  Atom+Function  
  ----- ------------  ---------------      ----- ------------  ---------------
    89      0.221911  10 C  px              109      0.221911  12 C  px        
    11      0.176167   2 C  pz               31      0.176167   4 C  pz        
   131     -0.176167  14 C  pz              151     -0.176167  16 C  pz        
    49     -0.154183   6 C  px               69     -0.154183   8 C  px        

 Vector   21  Occ=2.000000D+00  E=-3.826943D-01  Symmetry=a1
              MO Center= -1.1D-16,  9.9D-18,  2.0D-01, r^2= 3.6D+00
   Bfn.  Coefficient  Atom+Function         Bfn.  Coefficient  Atom+Function  
  ----- ------------  ---------------      ----- ------------  ---------------
    91      0.216399  10 C  pz              111      0.216399  12 C  pz        
    81      0.174871   9 H  s               101      0.174871  11 H  s         
    50      0.150494   6 C  py               70     -0.150494   8 C  py        

 Vector   22  Occ=2.000000D+00  E=-3.805898D-01  Symmetry=b1
              MO Center=  1.3D-15, -8.0D-16, -2.1D-01, r^2= 3.7D+00
   Bfn.  Coefficient  Atom+Function         Bfn.  Coefficient  Atom+Function  
  ----- ------------  ---------------      ----- ------------  ---------------
    49     -0.194549   6 C  px               69     -0.194549   8 C  px        
     9      0.189077   2 C  px               29      0.189077   4 C  px        
   129      0.189077  14 C  px              149      0.189077  16 C  px        
     1      0.168749   1 H  s                21      0.168749   3 H  s         
   121     -0.168749  13 H  s               141     -0.168749  15 H  s         

 Vector   23  Occ=2.000000D+00  E=-3.197209D-01  Symmetry=a2
              MO Center= -1.6D-16,  4.4D-14, -3.8D-01, r^2= 3.4D+00
   Bfn.  Coefficient  Atom+Function         Bfn.  Coefficient  Atom+Function  
  ----- ------------  ---------------      ----- ------------  ---------------
    49      0.306705   6 C  px               69     -0.306705   8 C  px        
    11     -0.175529   2 C  pz               31      0.175529   4 C  pz        
   131      0.175529  14 C  pz              151     -0.175529  16 C  pz        
    52      0.156884   6 C  px               72     -0.156884   8 C  px        
     9     -0.154607   2 C  px               29      0.154607   4 C  px        

 Vector   24  Occ=2.000000D+00  E=-3.121309D-01  Symmetry=b1
              MO Center= -1.4D-15,  9.8D-13,  3.4D-02, r^2= 2.8D+00
   Bfn.  Coefficient  Atom+Function         Bfn.  Coefficient  Atom+Function  
  ----- ------------  ---------------      ----- ------------  ---------------
    10      0.255824   2 C  py               30     -0.255824   4 C  py        
   130     -0.255824  14 C  py              150      0.255824  16 C  py        
    89     -0.181074  10 C  px              109     -0.181074  12 C  px        
    49     -0.150059   6 C  px               69     -0.150059   8 C  px        

 Vector   25  Occ=2.000000D+00  E=-2.875405D-01  Symmetry=b2
              MO Center= -1.5D-15,  4.4D-15,  1.7D-01, r^2= 3.6D+00
   Bfn.  Coefficient  Atom+Function         Bfn.  Coefficient  Atom+Function  
  ----- ------------  ---------------      ----- ------------  ---------------
    88      0.330393  10 C  s               108     -0.330393  12 C  s         
     8     -0.268647   2 C  s                28      0.268647   4 C  s         
   128     -0.268647  14 C  s               148      0.268647  16 C  s         
    91      0.262583  10 C  pz              111     -0.262583  12 C  pz        
    11     -0.207267   2 C  pz               31      0.207267   4 C  pz        

 Vector   26  Occ=2.000000D+00  E=-2.871701D-01  Symmetry=a1
              MO Center=  2.7D-15, -1.1D-15,  4.9D-01, r^2= 3.0D+00
   Bfn.  Coefficient  Atom+Function         Bfn.  Coefficient  Atom+Function  
  ----- ------------  ---------------      ----- ------------  ---------------
    90      0.335627  10 C  py              110     -0.335627  12 C  py        
    93      0.162733  10 C  py              113     -0.162733  12 C  py        

 Vector   27  Occ=2.000000D+00  E=-2.678978D-01  Symmetry=a2
              MO Center=  1.5D-15, -7.7D-13,  4.5D-01, r^2= 3.0D+00
   Bfn.  Coefficient  Atom+Function         Bfn.  Coefficient  Atom+Function  
  ----- ------------  ---------------      ----- ------------  ---------------
    89      0.309701  10 C  px              109     -0.309701  12 C  px        
     9     -0.182964   2 C  px               29      0.182964   4 C  px        
    92      0.183278  10 C  px              112     -0.183278  12 C  px        
   129     -0.182964  14 C  px              149      0.182964  16 C  px        
    11      0.157219   2 C  pz               31     -0.157219   4 C  pz        

 Vector   28  Occ=1.000000D+00  E=-1.372511D-01  Symmetry=b2
              MO Center=  6.7D-17,  4.1D-16, -7.9D-01, r^2= 3.4D+00
   Bfn.  Coefficient  Atom+Function         Bfn.  Coefficient  Atom+Function  
  ----- ------------  ---------------      ----- ------------  ---------------
    50      0.402064   6 C  py               70      0.402064   8 C  py        
     8      0.289762   2 C  s                28     -0.289762   4 C  s         
   128      0.289762  14 C  s               148     -0.289762  16 C  s         
    53      0.275338   6 C  py               73      0.275338   8 C  py        
    48     -0.223824   6 C  s                68      0.223824   8 C  s         

 Vector   29  Occ=1.000000D+00  E=-1.069095D-01  Symmetry=a1
              MO Center= -1.1D-15,  2.7D-16, -7.7D-01, r^2= 3.5D+00
   Bfn.  Coefficient  Atom+Function         Bfn.  Coefficient  Atom+Function  
  ----- ------------  ---------------      ----- ------------  ---------------
    50      0.369819   6 C  py               70     -0.369819   8 C  py        
    53      0.344353   6 C  py               73     -0.344353   8 C  py        

 Vector   30  Occ=0.000000D+00  E= 6.632118D-02  Symmetry=a1
              MO Center= -7.1D-17, -3.3D-16,  4.0D-01, r^2= 9.3D+00
   Bfn.  Coefficient  Atom+Function         Bfn.  Coefficient  Atom+Function  
  ----- ------------  ---------------      ----- ------------  ---------------
     2      0.756230   1 H  s                22      0.756230   3 H  s         
   122      0.756230  13 H  s               142      0.756230  15 H  s         
    82      0.739086   9 H  s               102      0.739086  11 H  s         
     8     -0.549766   2 C  s                28     -0.549766   4 C  s         
   128     -0.549766  14 C  s               148     -0.549766  16 C  s         

 Vector   31  Occ=0.000000D+00  E= 8.031426D-02  Symmetry=a1
              MO Center=  9.0D-16, -3.5D-16, -1.6D-01, r^2= 6.6D+00
   Bfn.  Coefficient  Atom+Function         Bfn.  Coefficient  Atom+Function  
  ----- ------------  ---------------      ----- ------------  ---------------
    88      1.463605  10 C  s               108      1.463605  12 C  s         
    48     -0.873358   6 C  s                68     -0.873358   8 C  s         
    42      0.739508   5 H  s                62      0.739508   7 H  s         
    82     -0.553716   9 H  s               102     -0.553716  11 H  s         
    14     -0.518304   2 C  pz               34     -0.518304   4 C  pz        

 Vector   32  Occ=0.000000D+00  E= 8.128663D-02  Symmetry=b1
              MO Center=  3.5D-15,  4.0D-16,  3.0D-01, r^2= 6.6D+00
   Bfn.  Coefficient  Atom+Function         Bfn.  Coefficient  Atom+Function  
  ----- ------------  ---------------      ----- ------------  ---------------
     8      1.134634   2 C  s                28      1.134634   4 C  s         
   128     -1.134634  14 C  s               148     -1.134634  16 C  s         
     2     -0.684197   1 H  s                22     -0.684197   3 H  s         
   122      0.684197  13 H  s               142      0.684197  15 H  s         
    92     -0.607319  10 C  px              112     -0.607319  12 C  px        

 Vector   33  Occ=0.000000D+00  E= 1.103380D-01  Symmetry=b2
              MO Center= -5.8D-16, -9.6D-16,  7.4D-01, r^2= 9.6D+00
   Bfn.  Coefficient  Atom+Function         Bfn.  Coefficient  Atom+Function  
  ----- ------------  ---------------      ----- ------------  ---------------
     8      1.162801   2 C  s                28     -1.162801   4 C  s         
   128      1.162801  14 C  s               148     -1.162801  16 C  s         
    82     -1.129210   9 H  s               102      1.129210  11 H  s         
    94      0.703890  10 C  pz              114     -0.703890  12 C  pz        
     2     -0.680048   1 H  s                22      0.680048   3 H  s         

 Vector   34  Occ=0.000000D+00  E= 1.203961D-01  Symmetry=a1
              MO Center= -1.0D-15, -5.2D-17, -1.0D+00, r^2= 8.9D+00
   Bfn.  Coefficient  Atom+Function         Bfn.  Coefficient  Atom+Function  
  ----- ------------  ---------------      ----- ------------  ---------------
    42      1.276309   5 H  s                62      1.276309   7 H  s         
    88     -0.880693  10 C  s               108     -0.880693  12 C  s         
    54      0.660706   6 C  pz               74      0.660706   8 C  pz        
    48     -0.592319   6 C  s                68     -0.592319   8 C  s         
    82      0.580439   9 H  s               102      0.580439  11 H  s         

 Vector   35  Occ=0.000000D+00  E= 1.296494D-01  Symmetry=b1
              MO Center=  5.2D-16,  1.2D-15,  2.7D-01, r^2= 7.6D+00
   Bfn.  Coefficient  Atom+Function         Bfn.  Coefficient  Atom+Function  
  ----- ------------  ---------------      ----- ------------  ---------------
     2      0.930695   1 H  s                22      0.930695   3 H  s         
   122     -0.930695  13 H  s               142     -0.930695  15 H  s         
    12     -0.664672   2 C  px               32     -0.664672   4 C  px        
   132     -0.664672  14 C  px              152     -0.664672  16 C  px        
    92     -0.483193  10 C  px              112     -0.483193  12 C  px        

 Vector   36  Occ=0.000000D+00  E= 1.336216D-01  Symmetry=a1
              MO Center=  4.1D-16,  5.4D-16,  8.1D-01, r^2= 8.3D+00
   Bfn.  Coefficient  Atom+Function         Bfn.  Coefficient  Atom+Function  
  ----- ------------  ---------------      ----- ------------  ---------------
    82      1.184027   9 H  s               102      1.184027  11 H  s         
    94     -0.703879  10 C  pz              114     -0.703879  12 C  pz        
    42     -0.586902   5 H  s                62     -0.586902   7 H  s         
     2     -0.549207   1 H  s                22     -0.549207   3 H  s         
   122     -0.549207  13 H  s               142     -0.549207  15 H  s         

 Vector   37  Occ=0.000000D+00  E= 1.344774D-01  Symmetry=a2
              MO Center=  1.7D-15, -5.6D-14, -4.3D-04, r^2= 9.9D+00
   Bfn.  Coefficient  Atom+Function         Bfn.  Coefficient  Atom+Function  
  ----- ------------  ---------------      ----- ------------  ---------------
     8      1.499677   2 C  s                28     -1.499677   4 C  s         
   128     -1.499677  14 C  s               148      1.499677  16 C  s         
     2     -1.195566   1 H  s                22      1.195566   3 H  s         
   122      1.195566  13 H  s               142     -1.195566  15 H  s         
    12      0.507670   2 C  px               32     -0.507670   4 C  px        

 Vector   38  Occ=0.000000D+00  E= 1.354114D-01  Symmetry=b2
              MO Center=  2.7D-16, -2.4D-16, -1.3D+00, r^2= 9.1D+00
   Bfn.  Coefficient  Atom+Function         Bfn.  Coefficient  Atom+Function  
  ----- ------------  ---------------      ----- ------------  ---------------
    48     -1.554502   6 C  s                68      1.554502   8 C  s         
    42      1.464245   5 H  s                62     -1.464245   7 H  s         
    82     -0.833442   9 H  s               102      0.833442  11 H  s         
    88      0.557022  10 C  s               108     -0.557022  12 C  s         
    54      0.525645   6 C  pz               74     -0.525645   8 C  pz        

 Vector   39  Occ=0.000000D+00  E= 1.539593D-01  Symmetry=b2
              MO Center=  6.8D-15, -4.7D-15,  2.8D-01, r^2= 1.1D+01
   Bfn.  Coefficient  Atom+Function         Bfn.  Coefficient  Atom+Function  
  ----- ------------  ---------------      ----- ------------  ---------------
     2      1.085665   1 H  s                22     -1.085665   3 H  s         
   122      1.085665  13 H  s               142     -1.085665  15 H  s         
    82     -0.939658   9 H  s               102      0.939658  11 H  s         
    94      0.925209  10 C  pz              114     -0.925209  12 C  pz        
    12     -0.903865   2 C  px               32      0.903865   4 C  px        

 Vector   40  Occ=0.000000D+00  E= 1.667003D-01  Symmetry=b2
              MO Center= -3.4D-16, -1.3D-16,  8.2D-01, r^2= 4.0D+00
   Bfn.  Coefficient  Atom+Function         Bfn.  Coefficient  Atom+Function  
  ----- ------------  ---------------      ----- ------------  ---------------
    93      1.171043  10 C  py              113      1.171043  12 C  py        
     8      1.068407   2 C  s                28     -1.068407   4 C  s         
   128      1.068407  14 C  s               148     -1.068407  16 C  s         
    82      0.642218   9 H  s               102     -0.642218  11 H  s         
    13      0.515993   2 C  py               33      0.515993   4 C  py        

 Vector   41  Occ=0.000000D+00  E= 1.847423D-01  Symmetry=a2
              MO Center=  8.2D-18, -5.6D-15,  7.0D-02, r^2= 4.1D+00
   Bfn.  Coefficient  Atom+Function         Bfn.  Coefficient  Atom+Function  
  ----- ------------  ---------------      ----- ------------  ---------------
    13      0.845217   2 C  py               33      0.845217   4 C  py        
   133     -0.845217  14 C  py              153     -0.845217  16 C  py        
    92      0.589443  10 C  px              112     -0.589443  12 C  px        
     2      0.307009   1 H  s                22     -0.307009   3 H  s         
   122     -0.307009  13 H  s               142      0.307009  15 H  s         

 Vector   42  Occ=0.000000D+00  E= 2.062542D-01  Symmetry=b1
              MO Center= -1.4D-15,  1.2D-15, -5.3D-01, r^2= 4.3D+00
   Bfn.  Coefficient  Atom+Function         Bfn.  Coefficient  Atom+Function  
  ----- ------------  ---------------      ----- ------------  ---------------
    52      1.172305   6 C  px               72      1.172305   8 C  px        
     8     -0.744948   2 C  s                28     -0.744948   4 C  s         
   128      0.744948  14 C  s               148      0.744948  16 C  s         
    14      0.603404   2 C  pz               34      0.603404   4 C  pz        
   134     -0.603404  14 C  pz              154     -0.603404  16 C  pz        

 Vector   43  Occ=0.000000D+00  E= 2.335043D-01  Symmetry=b2
              MO Center= -5.6D-16,  8.0D-16, -5.6D-02, r^2= 4.5D+00
   Bfn.  Coefficient  Atom+Function         Bfn.  Coefficient  Atom+Function  
  ----- ------------  ---------------      ----- ------------  ---------------
    88      2.488918  10 C  s               108     -2.488918  12 C  s         
    94     -1.380083  10 C  pz              114      1.380083  12 C  pz        
    14     -0.939930   2 C  pz               34      0.939930   4 C  pz        
   134     -0.939930  14 C  pz              154      0.939930  16 C  pz        
     8     -0.582247   2 C  s                28      0.582247   4 C  s         

 Vector   44  Occ=0.000000D+00  E= 2.611118D-01  Symmetry=a2
              MO Center= -1.1D-15,  4.1D-14, -3.6D-01, r^2= 5.6D+00
   Bfn.  Coefficient  Atom+Function         Bfn.  Coefficient  Atom+Function  
  ----- ------------  ---------------      ----- ------------  ---------------
     8      2.544702   2 C  s                28     -2.544702   4 C  s         
   128     -2.544702  14 C  s               148      2.544702  16 C  s         
    12     -1.305330   2 C  px               32      1.305330   4 C  px        
   132     -1.305330  14 C  px              152      1.305330  16 C  px        
    52     -1.177997   6 C  px               72      1.177997   8 C  px        

 Vector   45  Occ=0.000000D+00  E= 2.651545D-01  Symmetry=a1
              MO Center= -6.5D-15,  3.3D-14, -3.5D-01, r^2= 5.2D+00
   Bfn.  Coefficient  Atom+Function         Bfn.  Coefficient  Atom+Function  
  ----- ------------  ---------------      ----- ------------  ---------------
    48      3.434165   6 C  s                68      3.434165   8 C  s         
     8     -2.824630   2 C  s                28     -2.824630   4 C  s         
   128     -2.824630  14 C  s               148     -2.824630  16 C  s         
    88      2.431965  10 C  s               108      2.431965  12 C  s         
    12      1.513572   2 C  px               32      1.513572   4 C  px        

 Vector   46  Occ=0.000000D+00  E= 3.213914D-01  Symmetry=a2
              MO Center=  1.5D-15, -1.2D-14,  1.6D-01, r^2= 4.5D+00
   Bfn.  Coefficient  Atom+Function         Bfn.  Coefficient  Atom+Function  
  ----- ------------  ---------------      ----- ------------  ---------------
    92      1.237303  10 C  px              112     -1.237303  12 C  px        
    14     -1.017674   2 C  pz               34      1.017674   4 C  pz        
   134      1.017674  14 C  pz              154     -1.017674  16 C  pz        
    52     -1.010091   6 C  px               72      1.010091   8 C  px        
    13     -0.870955   2 C  py               33     -0.870955   4 C  py        

 Vector   47  Occ=0.000000D+00  E= 3.339929D-01  Symmetry=b2
              MO Center=  1.6D-14,  7.0D-15,  2.0D-01, r^2= 4.9D+00
   Bfn.  Coefficient  Atom+Function         Bfn.  Coefficient  Atom+Function  
  ----- ------------  ---------------      ----- ------------  ---------------
    88      4.117553  10 C  s               108     -4.117553  12 C  s         
    93      2.170949  10 C  py              113      2.170949  12 C  py        
    48     -1.443276   6 C  s                68      1.443276   8 C  s         
    13     -1.382096   2 C  py               33     -1.382096   4 C  py        
   133     -1.382096  14 C  py              153     -1.382096  16 C  py        

 Vector   48  Occ=0.000000D+00  E= 3.717737D-01  Symmetry=a1
              MO Center= -8.3D-17, -7.7D-16,  1.7D-01, r^2= 5.6D+00
   Bfn.  Coefficient  Atom+Function         Bfn.  Coefficient  Atom+Function  
  ----- ------------  ---------------      ----- ------------  ---------------
     8      1.146577   2 C  s                28      1.146577   4 C  s         
   128      1.146577  14 C  s               148      1.146577  16 C  s         
    54     -0.704891   6 C  pz               74     -0.704891   8 C  pz        
    94      0.683447  10 C  pz              114      0.683447  12 C  pz        
    47     -0.545417   6 C  s                67     -0.545417   8 C  s         

 Vector   49  Occ=0.000000D+00  E= 4.326909D-01  Symmetry=b1
              MO Center= -1.6D-16,  4.1D-15, -3.1D-01, r^2= 4.8D+00
   Bfn.  Coefficient  Atom+Function         Bfn.  Coefficient  Atom+Function  
  ----- ------------  ---------------      ----- ------------  ---------------
    52      0.445134   6 C  px               72      0.445134   8 C  px        
    49     -0.356949   6 C  px               69     -0.356949   8 C  px        
    11      0.282692   2 C  pz               31      0.282692   4 C  pz        
   131     -0.282692  14 C  pz              151     -0.282692  16 C  pz        
    92     -0.266387  10 C  px              112     -0.266387  12 C  px        

 Vector   50  Occ=0.000000D+00  E= 4.326921D-01  Symmetry=a1
              MO Center=  3.8D-16,  8.6D-16,  2.4D-01, r^2= 5.2D+00
   Bfn.  Coefficient  Atom+Function         Bfn.  Coefficient  Atom+Function  
  ----- ------------  ---------------      ----- ------------  ---------------
    88     -0.798558  10 C  s               108     -0.798558  12 C  s         
    48      0.739912   6 C  s                68      0.739912   8 C  s         
    47     -0.377675   6 C  s                67     -0.377675   8 C  s         
    81      0.330048   9 H  s               101      0.330048  11 H  s         
    12     -0.282968   2 C  px               32     -0.282968   4 C  px        

 Vector   51  Occ=0.000000D+00  E= 4.341013D-01  Symmetry=b2
              MO Center=  5.0D-14, -5.3D-15, -4.1D-01, r^2= 5.9D+00
   Bfn.  Coefficient  Atom+Function         Bfn.  Coefficient  Atom+Function  
  ----- ------------  ---------------      ----- ------------  ---------------
    88     -4.521965  10 C  s               108      4.521965  12 C  s         
     8      4.386489   2 C  s                28     -4.386489   4 C  s         
   128      4.386489  14 C  s               148     -4.386489  16 C  s         
    48     -4.145715   6 C  s                68      4.145715   8 C  s         
    12     -1.835717   2 C  px               32      1.835717   4 C  px        

 Vector   52  Occ=0.000000D+00  E= 4.774938D-01  Symmetry=b1
              MO Center= -3.8D-15,  2.8D-15,  3.2D-01, r^2= 5.2D+00
   Bfn.  Coefficient  Atom+Function         Bfn.  Coefficient  Atom+Function  
  ----- ------------  ---------------      ----- ------------  ---------------
    13     -0.477800   2 C  py               33      0.477800   4 C  py        
   133      0.477800  14 C  py              153     -0.477800  16 C  py        
     8      0.435500   2 C  s                28      0.435500   4 C  s         
   128     -0.435500  14 C  s               148     -0.435500  16 C  s         
    12     -0.427708   2 C  px               32     -0.427708   4 C  px        

 Vector   53  Occ=0.000000D+00  E= 4.801113D-01  Symmetry=a1
              MO Center=  6.7D-17, -2.2D-15,  1.3D-01, r^2= 4.9D+00
   Bfn.  Coefficient  Atom+Function         Bfn.  Coefficient  Atom+Function  
  ----- ------------  ---------------      ----- ------------  ---------------
    93      0.623792  10 C  py              113     -0.623792  12 C  py        
    88      0.587125  10 C  s               108      0.587125  12 C  s         
     8     -0.431373   2 C  s                28     -0.431373   4 C  s         
   128     -0.431373  14 C  s               148     -0.431373  16 C  s         
    14     -0.402818   2 C  pz               34     -0.402818   4 C  pz        

 Vector   54  Occ=0.000000D+00  E= 4.940942D-01  Symmetry=a2
              MO Center=  1.0D-15, -8.1D-15, -8.9D-02, r^2= 5.4D+00
   Bfn.  Coefficient  Atom+Function         Bfn.  Coefficient  Atom+Function  
  ----- ------------  ---------------      ----- ------------  ---------------
     8      1.560975   2 C  s                28     -1.560975   4 C  s         
   128     -1.560975  14 C  s               148      1.560975  16 C  s         
    13      0.701227   2 C  py               33      0.701227   4 C  py        
   133     -0.701227  14 C  py              153     -0.701227  16 C  py        
    14      0.514663   2 C  pz               34     -0.514663   4 C  pz        

 Vector   55  Occ=0.000000D+00  E= 4.962110D-01  Symmetry=b2
              MO Center=  4.9D-14, -1.6D-15, -1.9D-01, r^2= 6.8D+00
   Bfn.  Coefficient  Atom+Function         Bfn.  Coefficient  Atom+Function  
  ----- ------------  ---------------      ----- ------------  ---------------
    88     12.558578  10 C  s               108    -12.558578  12 C  s         
     8     -9.703631   2 C  s                28      9.703631   4 C  s         
   128     -9.703631  14 C  s               148      9.703631  16 C  s         
    48      6.100270   6 C  s                68     -6.100270   8 C  s         
    94     -4.514036  10 C  pz              114      4.514036  12 C  pz        

 Vector   56  Occ=0.000000D+00  E= 5.231169D-01  Symmetry=a1
              MO Center= -1.1D-15, -9.2D-15,  1.9D-01, r^2= 5.3D+00
   Bfn.  Coefficient  Atom+Function         Bfn.  Coefficient  Atom+Function  
  ----- ------------  ---------------      ----- ------------  ---------------
    88      2.200733  10 C  s               108      2.200733  12 C  s         
    94     -1.365049  10 C  pz              114     -1.365049  12 C  pz        
     8     -1.022676   2 C  s                28     -1.022676   4 C  s         
   128     -1.022676  14 C  s               148     -1.022676  16 C  s         
    54     -0.577340   6 C  pz               74     -0.577340   8 C  pz        

 Vector   57  Occ=0.000000D+00  E= 5.284549D-01  Symmetry=b1
              MO Center=  2.8D-15,  4.3D-16,  1.0D-02, r^2= 4.8D+00
   Bfn.  Coefficient  Atom+Function         Bfn.  Coefficient  Atom+Function  
  ----- ------------  ---------------      ----- ------------  ---------------
    92      0.478068  10 C  px              112      0.478068  12 C  px        
     1     -0.431280   1 H  s                12      0.432880   2 C  px        
    21     -0.431280   3 H  s                32      0.432880   4 C  px        
   121      0.431280  13 H  s               132      0.432880  14 C  px        
   141      0.431280  15 H  s               152      0.432880  16 C  px        

 Vector   58  Occ=0.000000D+00  E= 5.530795D-01  Symmetry=b2
              MO Center= -9.8D-15,  1.1D-15,  2.4D-01, r^2= 5.5D+00
   Bfn.  Coefficient  Atom+Function         Bfn.  Coefficient  Atom+Function  
  ----- ------------  ---------------      ----- ------------  ---------------
     8      2.197436   2 C  s                28     -2.197436   4 C  s         
   128      2.197436  14 C  s               148     -2.197436  16 C  s         
    48     -1.976619   6 C  s                68      1.976619   8 C  s         
    88     -1.015622  10 C  s               108      1.015622  12 C  s         
    53     -0.938269   6 C  py               73     -0.938269   8 C  py        

 Vector   59  Occ=0.000000D+00  E= 5.597885D-01  Symmetry=a2
              MO Center= -8.8D-16, -7.7D-16,  2.2D-01, r^2= 4.9D+00
   Bfn.  Coefficient  Atom+Function         Bfn.  Coefficient  Atom+Function  
  ----- ------------  ---------------      ----- ------------  ---------------
     8      2.383726   2 C  s                28     -2.383726   4 C  s         
   128     -2.383726  14 C  s               148      2.383726  16 C  s         
    13      0.855553   2 C  py               33      0.855553   4 C  py        
   133     -0.855553  14 C  py              153     -0.855553  16 C  py        
    92     -0.841057  10 C  px              112      0.841057  12 C  px        

 Vector   60  Occ=0.000000D+00  E= 5.623224D-01  Symmetry=a1
              MO Center= -1.3D-15,  8.1D-15, -6.5D-01, r^2= 5.5D+00
   Bfn.  Coefficient  Atom+Function         Bfn.  Coefficient  Atom+Function  
  ----- ------------  ---------------      ----- ------------  ---------------
    53      1.008000   6 C  py               73     -1.008000   8 C  py        
    50     -0.558735   6 C  py               70      0.558735   8 C  py        
    13     -0.404886   2 C  py               33      0.404886   4 C  py        
   133     -0.404886  14 C  py              153      0.404886  16 C  py        
     8     -0.393837   2 C  s                28     -0.393837   4 C  s         

 Vector   61  Occ=0.000000D+00  E= 5.953963D-01  Symmetry=b2
              MO Center=  4.3D-16, -3.9D-15, -1.4D-01, r^2= 6.1D+00
   Bfn.  Coefficient  Atom+Function         Bfn.  Coefficient  Atom+Function  
  ----- ------------  ---------------      ----- ------------  ---------------
    48      2.797364   6 C  s                68     -2.797364   8 C  s         
    88     -2.150689  10 C  s               108      2.150689  12 C  s         
     8     -1.572299   2 C  s                28      1.572299   4 C  s         
   128     -1.572299  14 C  s               148      1.572299  16 C  s         
    93     -1.017788  10 C  py              113     -1.017788  12 C  py        

 Vector   62  Occ=0.000000D+00  E= 6.203776D-01  Symmetry=a1
              MO Center= -1.3D-15,  1.0D-14,  7.5D-01, r^2= 5.1D+00
   Bfn.  Coefficient  Atom+Function         Bfn.  Coefficient  Atom+Function  
  ----- ------------  ---------------      ----- ------------  ---------------
     8      2.017148   2 C  s                28      2.017148   4 C  s         
   128      2.017148  14 C  s               148      2.017148  16 C  s         
    88     -1.594813  10 C  s               108     -1.594813  12 C  s         
    94      1.458254  10 C  pz              114      1.458254  12 C  pz        
    54     -1.134498   6 C  pz               74     -1.134498   8 C  pz        

 Vector   63  Occ=0.000000D+00  E= 6.241225D-01  Symmetry=b1
              MO Center=  8.8D-15, -2.4D-15,  4.2D-01, r^2= 5.7D+00
   Bfn.  Coefficient  Atom+Function         Bfn.  Coefficient  Atom+Function  
  ----- ------------  ---------------      ----- ------------  ---------------
     8      1.336464   2 C  s                28      1.336464   4 C  s         
   128     -1.336464  14 C  s               148     -1.336464  16 C  s         
    92     -1.080312  10 C  px              112     -1.080312  12 C  px        
    12     -0.973891   2 C  px               32     -0.973891   4 C  px        
   132     -0.973891  14 C  px              152     -0.973891  16 C  px        

 Vector   64  Occ=0.000000D+00  E= 6.270288D-01  Symmetry=b2
              MO Center= -2.5D-14,  9.5D-15,  7.9D-02, r^2= 6.1D+00
   Bfn.  Coefficient  Atom+Function         Bfn.  Coefficient  Atom+Function  
  ----- ------------  ---------------      ----- ------------  ---------------
     8      6.648832   2 C  s                28     -6.648832   4 C  s         
   128      6.648832  14 C  s               148     -6.648832  16 C  s         
    88     -5.413181  10 C  s               108      5.413181  12 C  s         
    48     -3.689094   6 C  s                68      3.689094   8 C  s         
    53     -1.928803   6 C  py               73     -1.928803   8 C  py        

 Vector   65  Occ=0.000000D+00  E= 6.390203D-01  Symmetry=a2
              MO Center=  2.2D-14, -4.0D-14,  2.9D-02, r^2= 7.0D+00
   Bfn.  Coefficient  Atom+Function         Bfn.  Coefficient  Atom+Function  
  ----- ------------  ---------------      ----- ------------  ---------------
     8      3.716717   2 C  s                28     -3.716717   4 C  s         
   128     -3.716717  14 C  s               148      3.716717  16 C  s         
    12     -2.404804   2 C  px               32      2.404804   4 C  px        
   132     -2.404804  14 C  px              152      2.404804  16 C  px        
    13      1.683406   2 C  py               33      1.683406   4 C  py        

 Vector   66  Occ=0.000000D+00  E= 6.443365D-01  Symmetry=a1
              MO Center=  5.3D-14,  3.4D-15, -9.2D-01, r^2= 6.1D+00
   Bfn.  Coefficient  Atom+Function         Bfn.  Coefficient  Atom+Function  
  ----- ------------  ---------------      ----- ------------  ---------------
    48      2.132836   6 C  s                68      2.132836   8 C  s         
    88      1.822177  10 C  s               108      1.822177  12 C  s         
    42     -0.965562   5 H  s                62     -0.965562   7 H  s         
     8     -0.721198   2 C  s                28     -0.721198   4 C  s         
   128     -0.721198  14 C  s               148     -0.721198  16 C  s         

 Vector   67  Occ=0.000000D+00  E= 6.550426D-01  Symmetry=b2
              MO Center=  1.0D-14, -3.2D-14, -3.8D-02, r^2= 6.5D+00
   Bfn.  Coefficient  Atom+Function         Bfn.  Coefficient  Atom+Function  
  ----- ------------  ---------------      ----- ------------  ---------------
    88      9.356158  10 C  s               108     -9.356158  12 C  s         
     8     -5.607652   2 C  s                28      5.607652   4 C  s         
   128     -5.607652  14 C  s               148      5.607652  16 C  s         
    94     -4.180818  10 C  pz              114      4.180818  12 C  pz        
    93      2.565614  10 C  py              113      2.565614  12 C  py        

 Vector   68  Occ=0.000000D+00  E= 6.724149D-01  Symmetry=a2
              MO Center=  4.8D-15, -8.7D-16,  1.7D-01, r^2= 5.1D+00
   Bfn.  Coefficient  Atom+Function         Bfn.  Coefficient  Atom+Function  
  ----- ------------  ---------------      ----- ------------  ---------------
    92      1.479622  10 C  px              112     -1.479622  12 C  px        
     8     -1.138910   2 C  s                28      1.138910   4 C  s         
   128      1.138910  14 C  s               148     -1.138910  16 C  s         
    13      1.034498   2 C  py               33      1.034498   4 C  py        
   133     -1.034498  14 C  py              153     -1.034498  16 C  py        

 Vector   69  Occ=0.000000D+00  E= 6.747764D-01  Symmetry=a1
              MO Center= -1.6D-14, -7.1D-15, -3.1D-01, r^2= 5.4D+00
   Bfn.  Coefficient  Atom+Function         Bfn.  Coefficient  Atom+Function  
  ----- ------------  ---------------      ----- ------------  ---------------
    48      5.161715   6 C  s                68      5.161715   8 C  s         
     8     -4.271144   2 C  s                28     -4.271144   4 C  s         
   128     -4.271144  14 C  s               148     -4.271144  16 C  s         
    54      2.247668   6 C  pz               74      2.247668   8 C  pz        
    88      1.369732  10 C  s               108      1.369732  12 C  s         

 Vector   70  Occ=0.000000D+00  E= 6.791435D-01  Symmetry=b1
              MO Center= -3.1D-14,  1.4D-15, -6.0D-01, r^2= 5.7D+00
   Bfn.  Coefficient  Atom+Function         Bfn.  Coefficient  Atom+Function  
  ----- ------------  ---------------      ----- ------------  ---------------
     8      2.642520   2 C  s                28      2.642520   4 C  s         
   128     -2.642520  14 C  s               148     -2.642520  16 C  s         
    52     -1.741166   6 C  px               72     -1.741166   8 C  px        
     2     -0.723029   1 H  s                22     -0.723029   3 H  s         
   122      0.723029  13 H  s               142      0.723029  15 H  s         

 Vector   71  Occ=0.000000D+00  E= 6.851955D-01  Symmetry=a1
[...]
   19 Stretch                 15    16                       1.10060    0.01176
   20 Bend                     1     2     4               115.60824   -0.04964
   21 Bend                     1     2     6               122.30912   -0.03834
   22 Bend                     1     2    10               125.06118   -0.07527
   23 Bend                     2     4     3               115.60824   -0.04964
   24 Bend                     2     4     8               110.12201    0.17178
   25 Bend                     2     4    12                88.53131    0.07101
   26 Bend                     2     6     5               132.84390    0.06848
   27 Bend                     2     6    14                91.04482   -0.19190
   28 Bend                     2    10     9               124.05742   -0.00156
   29 Bend                     2    10    12                91.46869   -0.07101
   30 Bend                     2    10    14                85.98672    0.14530
   31 Bend                     3     4     8               122.30912   -0.03834
   32 Bend                     3     4    12               125.06118   -0.07527
   33 Bend                     4     2     6               110.12201    0.17178
   34 Bend                     4     2    10                88.53131    0.07101
   35 Bend                     4     8     7               132.84390    0.06848
   36 Bend                     4     8    16                91.04482   -0.19190
   37 Bend                     4    12    10                91.46869   -0.07101
   38 Bend                     4    12    11               124.05742   -0.00156
   39 Bend                     4    12    16                85.98672    0.14530
   40 Bend                     5     6    14               132.84390    0.06848
   41 Bend                     6     2    10                88.18998   -0.04977
   42 Bend                     6    14    10                88.18998   -0.04977
   43 Bend                     6    14    13               122.30912   -0.03834
   44 Bend                     6    14    16               110.12201    0.17178
   45 Bend                     7     8    16               132.84390    0.06848
   46 Bend                     8     4    12                88.18998   -0.04977
   47 Bend                     8    16    12                88.18998   -0.04977
   48 Bend                     8    16    14               110.12201    0.17178
   49 Bend                     8    16    15               122.30912   -0.03834
   50 Bend                     9    10    12               128.02674    0.01697
   51 Bend                     9    10    14               124.05742   -0.00156
   52 Bend                    10    12    11               128.02674    0.01697
   53 Bend                    10    12    16                91.46869   -0.07101
   54 Bend                    10    14    13               125.06118   -0.07527
   55 Bend                    10    14    16                88.53131    0.07101
   56 Bend                    11    12    16               124.05742   -0.00156
   57 Bend                    12    10    14                91.46869   -0.07101
   58 Bend                    12    16    14                88.53131    0.07101
   59 Bend                    12    16    15               125.06118   -0.07527
   60 Bend                    13    14    16               115.60824   -0.04964
   61 Bend                    14    16    15               115.60824   -0.04964
   62 Torsion                  1     2     4     3           0.00000    0.00000
   63 Torsion                  1     2     4     8         143.78874    0.09702
   64 Torsion                  1     2     4    12        -128.67824    0.06281
   65 Torsion                  1     2     6     5         -48.19548   -0.12861
   66 Torsion                  1     2     6    14         150.98247    0.02901
   67 Torsion                  1     2    10     9         -18.88717    0.01683
   68 Torsion                  1     2    10    12         120.67799   -0.03581
   69 Torsion                  1     2    10    14        -147.95231   -0.09843
   70 Torsion                  2     4     8     7         -92.73062    0.02065
   71 Torsion                  2     4     8    16          68.09143   -0.13696
   72 Torsion                  2     4    12    10           0.00000    0.00000
   73 Torsion                  2     4    12    11         139.56516   -0.05265
   74 Torsion                  2     4    12    16         -91.36969    0.06262
   75 Torsion                  2     6    14    10         -19.67985   -0.18657
   76 Torsion                  2     6    14    13        -150.98247   -0.02901
   77 Torsion                  2     6    14    16          68.09143   -0.13696
   78 Torsion                  2    10    12     4           0.00000    0.00000
   79 Torsion                  2    10    12    11        -136.98908    0.07096
   80 Torsion                  2    10    12    16          86.02184    0.14192
   81 Torsion                  2    10    14     6          18.81916    0.23354
   82 Torsion                  2    10    14    13         147.95231    0.09843
   83 Torsion                  2    10    14    16         -91.36969    0.06262
   84 Torsion                  3     4     2     6        -143.78874   -0.09702
   85 Torsion                  3     4     2    10         128.67824   -0.06281
   86 Torsion                  3     4     8     7          48.19548    0.12861
   87 Torsion                  3     4     8    16        -150.98247   -0.02901
   88 Torsion                  3     4    12    10        -120.67799    0.03581
   89 Torsion                  3     4    12    11          18.88717   -0.01683
   90 Torsion                  3     4    12    16         147.95231    0.09843
   91 Torsion                  4     2     6     5          92.73062   -0.02065
   92 Torsion                  4     2     6    14         -68.09143    0.13696
   93 Torsion                  4     2    10     9        -139.56516    0.05265
   94 Torsion                  4     2    10    12           0.00000    0.00000
   95 Torsion                  4     2    10    14          91.36969   -0.06262
   96 Torsion                  4     8    16    12          19.67985    0.18657
   97 Torsion                  4     8    16    14         -68.09143    0.13696
   98 Torsion                  4     8    16    15         150.98247    0.02901
   99 Torsion                  4    12    10     9         136.98908   -0.07096
  100 Torsion                  4    12    10    14         -86.02184   -0.14192
  101 Torsion                  4    12    16     8         -18.81916   -0.23354
  102 Torsion                  4    12    16    14          91.36969   -0.06262
  103 Torsion                  4    12    16    15        -147.95231   -0.09843
  104 Torsion                  5     6     2    10        -179.49810    0.02895
  105 Torsion                  5     6    14    10         179.49810   -0.02895
  106 Torsion                  5     6    14    13          48.19548    0.12861
  107 Torsion                  5     6    14    16         -92.73062    0.02065
  108 Torsion                  6     2     4     8           0.00000    0.00000
  109 Torsion                  6     2     4    12          87.53302   -0.03421
  110 Torsion                  6     2    10     9         110.24599   -0.11827
  111 Torsion                  6     2    10    12        -110.18885   -0.17092
  112 Torsion                  6     2    10    14         -18.81916   -0.23354
  113 Torsion                  6    14    10     9        -110.24599    0.11827
  114 Torsion                  6    14    10    12         110.18885    0.17092
  115 Torsion                  6    14    16     8           0.00000    0.00000
  116 Torsion                  6    14    16    12         -87.53302    0.03421
  117 Torsion                  6    14    16    15         143.78874    0.09702
  118 Torsion                  7     8     4    12         179.49810   -0.02895
  119 Torsion                  7     8    16    12        -179.49810    0.02895
  120 Torsion                  7     8    16    14          92.73062   -0.02065
  121 Torsion                  7     8    16    15         -48.19548   -0.12861
  122 Torsion                  8     4     2    10         -87.53302    0.03421
  123 Torsion                  8     4    12    10         110.18885    0.17092
  124 Torsion                  8     4    12    11        -110.24599    0.11827
  125 Torsion                  8     4    12    16          18.81916    0.23354
  126 Torsion                  8    16    12    10        -110.18885   -0.17092
  127 Torsion                  8    16    12    11         110.24599   -0.11827
  128 Torsion                  8    16    14    10          87.53302   -0.03421
  129 Torsion                  8    16    14    13        -143.78874   -0.09702
  130 Torsion                  9    10    12    11           0.00000    0.00000
  131 Torsion                  9    10    12    16        -136.98908    0.07096
  132 Torsion                  9    10    14    13          18.88717   -0.01683
  133 Torsion                  9    10    14    16         139.56516   -0.05265
  134 Torsion                 10     2     4    12           0.00000    0.00000
  135 Torsion                 10     2     6    14          19.67985    0.18657
  136 Torsion                 10    12    16    14           0.00000    0.00000
  137 Torsion                 10    12    16    15         120.67799   -0.03581
  138 Torsion                 10    14    16    12           0.00000    0.00000
  139 Torsion                 10    14    16    15        -128.67824    0.06281
  140 Torsion                 11    12    10    14         136.98908   -0.07096
  141 Torsion                 11    12    16    14        -139.56516    0.05265
  142 Torsion                 11    12    16    15         -18.88717    0.01683
  143 Torsion                 12     4     8    16         -19.67985   -0.18657
  144 Torsion                 12    10    14    13        -120.67799    0.03581
  145 Torsion                 12    10    14    16          -0.00000    0.00000
  146 Torsion                 12    16    14    13         128.67824   -0.06281
  147 Torsion                 13    14    16    15           0.00000    0.00000
  148 Torsion                 14    10    12    16           0.00000    0.00000

 ==============================================================================
                                internuclear distances
 ------------------------------------------------------------------------------
       center one      |      center two      | atomic units |  angstroms
 ------------------------------------------------------------------------------
    2 C                |   1 H                |     2.07982  |     1.10060
    4 C                |   2 C                |     3.07071  |     1.62495
    4 C                |   3 H                |     2.07982  |     1.10060
    6 C                |   2 C                |     2.83833  |     1.50198
    6 C                |   5 H                |     2.06840  |     1.09455
    8 C                |   4 C                |     2.83833  |     1.50198
    8 C                |   7 H                |     2.06840  |     1.09455
   10 C                |   2 C                |     2.96990  |     1.57161
   10 C                |   9 H                |     2.07492  |     1.09800
   12 C                |   4 C                |     2.96990  |     1.57161
   12 C                |  10 C                |     2.91846  |     1.54438
   12 C                |  11 H                |     2.07492  |     1.09800
   14 C                |   6 C                |     2.83833  |     1.50198
   14 C                |  10 C                |     2.96990  |     1.57161
   14 C                |  13 H                |     2.07982  |     1.10060
   16 C                |   8 C                |     2.83833  |     1.50198
   16 C                |  12 C                |     2.96990  |     1.57161
   16 C                |  14 C                |     3.07071  |     1.62495
   16 C                |  15 H                |     2.07982  |     1.10060
 ------------------------------------------------------------------------------
                         number of included internuclear distances:         19
 ==============================================================================



 ==============================================================================
                                 internuclear angles
 ------------------------------------------------------------------------------
        center 1       |       center 2       |       center 3       |  degrees
 ------------------------------------------------------------------------------
    1 H                |   2 C                |   4 C                |   115.61
    1 H                |   2 C                |   6 C                |   122.31
    1 H                |   2 C                |  10 C                |   125.06
    4 C                |   2 C                |   6 C                |   110.12
    4 C                |   2 C                |  10 C                |    88.53
    6 C                |   2 C                |  10 C                |    88.19
    2 C                |   4 C                |   3 H                |   115.61
    2 C                |   4 C                |   8 C                |   110.12
    2 C                |   4 C                |  12 C                |    88.53
    3 H                |   4 C                |   8 C                |   122.31
    3 H                |   4 C                |  12 C                |   125.06
    8 C                |   4 C                |  12 C                |    88.19
    2 C                |   6 C                |   5 H                |   132.84
    2 C                |   6 C                |  14 C                |    91.04
    5 H                |   6 C                |  14 C                |   132.84
    4 C                |   8 C                |   7 H                |   132.84
    4 C                |   8 C                |  16 C                |    91.04
    7 H                |   8 C                |  16 C                |   132.84
    2 C                |  10 C                |   9 H                |   124.06
    2 C                |  10 C                |  12 C                |    91.47
    2 C                |  10 C                |  14 C                |    85.99
    9 H                |  10 C                |  12 C                |   128.03
    9 H                |  10 C                |  14 C                |   124.06
   12 C                |  10 C                |  14 C                |    91.47
    4 C                |  12 C                |  10 C                |    91.47
    4 C                |  12 C                |  11 H                |   124.06
    4 C                |  12 C                |  16 C                |    85.99
   10 C                |  12 C                |  11 H                |   128.03
   10 C                |  12 C                |  16 C                |    91.47
   11 H                |  12 C                |  16 C                |   124.06
    6 C                |  14 C                |  10 C                |    88.19
    6 C                |  14 C                |  13 H                |   122.31
    6 C                |  14 C                |  16 C                |   110.12
   10 C                |  14 C                |  13 H                |   125.06
   10 C                |  14 C                |  16 C                |    88.53
   13 H                |  14 C                |  16 C                |   115.61
    8 C                |  16 C                |  12 C                |    88.19
    8 C                |  16 C                |  14 C                |   110.12
    8 C                |  16 C                |  15 H                |   122.31
   12 C                |  16 C                |  14 C                |    88.53
   12 C                |  16 C                |  15 H                |   125.06
   14 C                |  16 C                |  15 H                |   115.61
 ------------------------------------------------------------------------------
                            number of included internuclear angles:         42
 ==============================================================================




 Task  times  cpu:      121.6s     wall:       67.5s
 Summary of allocated global arrays
-----------------------------------
  No active global arrays



                         GA Statistics for process    0
                         ------------------------------

       create   destroy   get      put      acc     scatter   gather  read&inc
calls: 1989     1989     6.16e+05 6.20e+04 4.53e+05  314        0     5.16e+04 
number of processes/call 1.00e+00 1.00e+00 1.00e+00 0.00e+00 0.00e+00
bytes total:             9.76e+08 2.05e+08 4.63e+08 2.05e+05 0.00e+00 4.13e+05
bytes remote:            0.00e+00 0.00e+00 0.00e+00 0.00e+00 0.00e+00 0.00e+00
Max memory consumed for GA by this process: 7702976 bytes
MA_summarize_allocated_blocks: starting scan ...
MA_summarize_allocated_blocks: scan completed: 0 heap blocks, 0 stack blocks
MA usage statistics:

	allocation statistics:
					      heap	     stack
					      ----	     -----
	current number of blocks	         0	         0
	maximum number of blocks	        25	        55
	current total bytes		         0	         0
	maximum total bytes		 442257424	  33144840
	maximum total K-bytes		    442258	     33145
	maximum total M-bytes		       443	        34


                                NWChem Input Module
                                -------------------





                                     CITATION
                                     --------
                Please cite the following reference when publishing
                           results obtained with NWChem:

                 M. Valiev, E.J. Bylaska, N. Govind, K. Kowalski,
              T.P. Straatsma, H.J.J. van Dam, D. Wang, J. Nieplocha,
                        E. Apra, T.L. Windus, W.A. de Jong
                 "NWChem: a comprehensive and scalable open-source
                  solution for large scale molecular simulations"
                      Comput. Phys. Commun. 181, 1477 (2010)
                           doi:10.1016/j.cpc.2010.04.018

                                      AUTHORS
                                      -------
          E. Apra, E. J. Bylaska, W. A. de Jong, N. Govind, K. Kowalski,
       T. P. Straatsma, M. Valiev, H. J. J. van Dam, D. Wang, T. L. Windus,
        J. Hammond, J. Autschbach, K. Bhaskaran-Nair, J. Brabec, K. Lopata,
    S. A. Fischer, S. Krishnamoorthy, M. Jacquelin, W. Ma, M. Klemm, O. Villa,
      Y. Chen, V. Anisimov, F. Aquino, S. Hirata, M. T. Hackler, V. Konjkov,
            D. Mejia-Rodriguez, T. Risthaus, M. Malagoli, A. Marenich,
   A. Otero-de-la-Roza, J. Mullin, P. Nichols, R. Peverati, J. Pittner, Y. Zhao,
        P.-D. Fan, A. Fonari, M. J. Williamson, R. J. Harrison, J. R. Rehr,
      M. Dupuis, D. Silverstein, D. M. A. Smith, J. Nieplocha, V. Tipparaju,
    M. Krishnan, B. E. Van Kuiken, A. Vazquez-Mayagoitia, L. Jensen, M. Swart,
      Q. Wu, T. Van Voorhis, A. A. Auer, M. Nooijen, L. D. Crosby, E. Brown,
      G. Cisneros, G. I. Fann, H. Fruchtl, J. Garza, K. Hirao, R. A. Kendall,
      J. A. Nichols, K. Tsemekhman, K. Wolinski, J. Anchell, D. E. Bernholdt,
      P. Borowski, T. Clark, D. Clerc, H. Dachsel, M. J. O. Deegan, K. Dyall,
    D. Elwood, E. Glendening, M. Gutowski, A. C. Hess, J. Jaffe, B. G. Johnson,
     J. Ju, R. Kobayashi, R. Kutteh, Z. Lin, R. Littlefield, X. Long, B. Meng,
      T. Nakajima, S. Niu, L. Pollack, M. Rosing, K. Glaesemann, G. Sandrone,
      M. Stave, H. Taylor, G. Thomas, J. H. van Lenthe, A. T. Wong, Z. Zhang.

 Total times  cpu:      121.9s     wall:       67.6s
