 argument  1 = triplet.nw
                                         
                                         


              Northwest Computational Chemistry Package (NWChem) 6.8
              ------------------------------------------------------


                    Environmental Molecular Sciences Laboratory
                       Pacific Northwest National Laboratory
                                Richland, WA 99352

                              Copyright (c) 1994-2017
                       Pacific Northwest National Laboratory
                            Battelle Memorial Institute

             NWChem is an open-source computational chemistry package
                        distributed under the terms of the
                      Educational Community License (ECL) 2.0
             A copy of the license is included with this distribution
                              in the LICENSE.TXT file

                                  ACKNOWLEDGMENT
                                  --------------

            This software and its documentation were developed at the
            EMSL at Pacific Northwest National Laboratory, a multiprogram
            national laboratory, operated for the U.S. Department of Energy
            by Battelle under Contract Number DE-AC05-76RL01830. Support
            for this work was provided by the Department of Energy Office
            of Biological and Environmental Research, Office of Basic
            Energy Sciences, and the Office of Advanced Scientific Computing.


           Job information
           ---------------

    hostname        = vladimir-Kubuntu-16
    program         = nwchem
    date            = Mon Dec 23 11:08:00 2019

    compiled        = Wed_Aug_15_19:14:19_2018
    source          = /home/edo/debichem-team/nwchem/nwchem-6.8.1
    nwchem branch   = 6.8.1
    nwchem revision = v6.8-133-ge032219
    ga revision     = 5.6.5
    use scalapack   = T
    input           = triplet.nw
    prefix          = triplet.
    data base       = ./triplet.db
    status          = startup
    nproc           =        1
    time left       =     -1s



           Memory information
           ------------------

    heap     =   13107196 doubles =    100.0 Mbytes
    stack    =   13107201 doubles =    100.0 Mbytes
    global   =   26214400 doubles =    200.0 Mbytes (distinct from heap & stack)
    total    =   52428797 doubles =    400.0 Mbytes
    verify   = yes
    hardfail = no 


           Directory information
           ---------------------

  0 permanent = .
  0 scratch   = .




                                NWChem Input Module
                                -------------------


               cubane T-biradical MP2/cc-pVTZ geometry optimization
               ----------------------------------------------------

 Scaling coordinates for geometry "geometry" by  1.889725989
 (inverse scale =  0.529177249)

 Turning off AUTOSYM since
 SYMMETRY directive was detected!


          ------
          auto-z
          ------


                             Geometry "geometry" -> ""
                             -------------------------

 Output coordinates in angstroms (scale by  1.889725989 to convert to a.u.)

  No.       Tag          Charge          X              Y              Z
 ---- ---------------- ---------- -------------- -------------- --------------
    1 H                    1.0000     2.06764061     1.28283203    -0.00592891
    2 C                    6.0000     1.08129134     0.80023067    -0.08243644
    3 H                    1.0000     2.06764061    -1.28283203    -0.00592891
    4 C                    6.0000     1.08129134    -0.80023067    -0.08243644
    5 H                    1.0000     0.00000000    -2.35975410    -1.43482569
    6 C                    6.0000     0.00000000    -1.35361119    -0.99836162
    7 H                    1.0000     0.00000000     2.35975410    -1.43482569
    8 C                    6.0000     0.00000000     1.35361119    -0.99836162
    9 H                    1.0000     0.00000000    -1.47004282     1.93809275
   10 C                    6.0000     0.00000000    -0.77970203     1.08133294
   11 H                    1.0000     0.00000000     1.47004282     1.93809275
   12 C                    6.0000     0.00000000     0.77970203     1.08133294
   13 H                    1.0000    -2.06764061     1.28283203    -0.00592891
   14 C                    6.0000    -1.08129134     0.80023067    -0.08243644
   15 H                    1.0000    -2.06764061    -1.28283203    -0.00592891
   16 C                    6.0000    -1.08129134    -0.80023067    -0.08243644

      Atomic Mass 
      ----------- 

      H                  1.007825
      C                 12.000000


 Effective nuclear repulsion energy (a.u.)     355.6481113583

            Nuclear Dipole moment (a.u.) 
            ----------------------------
        X                 Y               Z
 ---------------- ---------------- ----------------
     0.0000000000     0.0000000000    -0.0000000000

      Symmetry information
      --------------------

 Group name             C2v       
 Group number             16
 Group order               4
 No. of unique centers     6

      Symmetry unique atoms

     1    2    5    6    9   10



                                Z-matrix (autoz)
                                -------- 

 Units are Angstrom for bonds and degrees for angles

      Type          Name      I     J     K     L     M      Value
      ----------- --------  ----- ----- ----- ----- ----- ----------
    1 Stretch                  1     2                       1.10075
    2 Stretch                  2     4                       1.60046
    3 Stretch                  2     8                       1.52130
    4 Stretch                  2    12                       1.58870
    5 Stretch                  3     4                       1.10075
    6 Stretch                  4     6                       1.52130
    7 Stretch                  4    10                       1.58870
    8 Stretch                  5     6                       1.09673
    9 Stretch                  6    16                       1.52130
   10 Stretch                  7     8                       1.09673
   11 Stretch                  8    14                       1.52130
   12 Stretch                  9    10                       1.10028
   13 Stretch                 10    12                       1.55940
   14 Stretch                 10    16                       1.58870
   15 Stretch                 11    12                       1.10028
   16 Stretch                 12    14                       1.58870
   17 Stretch                 13    14                       1.10075
   18 Stretch                 14    16                       1.60046
   19 Stretch                 15    16                       1.10075
   20 Bend                     1     2     4               116.00382
   21 Bend                     1     2     8               121.28310
   22 Bend                     1     2    12               124.37661
   23 Bend                     2     4     3               116.00382
   24 Bend                     2     4     6               111.33105
   25 Bend                     2     4    10                89.25962
   26 Bend                     2     8     7               124.98162
   27 Bend                     2     8    14                90.59522
   28 Bend                     2    12    10                90.74038
   29 Bend                     2    12    11               124.21473
   30 Bend                     2    12    14                85.78319
   31 Bend                     3     4     6               121.28310
   32 Bend                     3     4    10               124.37661
   33 Bend                     4     2     8               111.33105
   34 Bend                     4     2    12                89.25962
   35 Bend                     4     6     5               124.98162
   36 Bend                     4     6    16                90.59522
   37 Bend                     4    10     9               124.21473
   38 Bend                     4    10    12                90.74038
   39 Bend                     4    10    16                85.78319
   40 Bend                     5     6    16               124.98162
   41 Bend                     6     4    10                87.82073
   42 Bend                     6    16    10                87.82073
   43 Bend                     6    16    14               111.33105
   44 Bend                     6    16    15               121.28310
   45 Bend                     7     8    14               124.98162
   46 Bend                     8     2    12                87.82073
   47 Bend                     8    14    12                87.82073
   48 Bend                     8    14    13               121.28310
   49 Bend                     8    14    16               111.33105
   50 Bend                     9    10    12               128.86040
   51 Bend                     9    10    16               124.21473
   52 Bend                    10    12    11               128.86040
   53 Bend                    10    12    14                90.74038
   54 Bend                    10    16    14                89.25962
   55 Bend                    10    16    15               124.37661
   56 Bend                    11    12    14               124.21473
   57 Bend                    12    10    16                90.74038
   58 Bend                    12    14    13               124.37661
   59 Bend                    12    14    16                89.25962
   60 Bend                    13    14    16               116.00382
   61 Bend                    14    16    15               116.00382
   62 Torsion                  1     2     4     3           0.00000
   63 Torsion                  1     2     4     6        -144.16854
   64 Torsion                  1     2     4    10         128.46069
   65 Torsion                  1     2     8     7         -16.24482
   66 Torsion                  1     2     8    14        -151.23913
   67 Torsion                  1     2    12    10        -121.49430
   68 Torsion                  1     2    12    11          18.64322
   69 Torsion                  1     2    12    14         147.81784
   70 Torsion                  2     4     6     5         158.24585
   71 Torsion                  2     4     6    16         -66.75983
   72 Torsion                  2     4    10     9        -140.13752
   73 Torsion                  2     4    10    12           0.00000
   74 Torsion                  2     4    10    16          90.68785
   75 Torsion                  2     8    14    12          21.59313
   76 Torsion                  2     8    14    13         151.23913
   77 Torsion                  2     8    14    16         -66.75983
   78 Torsion                  2    12    10     4           0.00000
   79 Torsion                  2    12    10     9         137.10396
   80 Torsion                  2    12    10    16         -85.79208
   81 Torsion                  2    12    14     8         -20.69152
   82 Torsion                  2    12    14    13        -147.81784
   83 Torsion                  2    12    14    16          90.68785
   84 Torsion                  3     4     2     8         144.16854
   85 Torsion                  3     4     2    12        -128.46069
   86 Torsion                  3     4     6     5          16.24482
   87 Torsion                  3     4     6    16         151.23913
   88 Torsion                  3     4    10     9         -18.64322
   89 Torsion                  3     4    10    12         121.49430
   90 Torsion                  3     4    10    16        -147.81784
   91 Torsion                  4     2     8     7        -158.24585
   92 Torsion                  4     2     8    14          66.75983
   93 Torsion                  4     2    12    10           0.00000
   94 Torsion                  4     2    12    11         140.13752
   95 Torsion                  4     2    12    14         -90.68785
   96 Torsion                  4     6    16    10         -21.59313
   97 Torsion                  4     6    16    14          66.75983
   98 Torsion                  4     6    16    15        -151.23913
   99 Torsion                  4    10    12    11        -137.10396
  100 Torsion                  4    10    12    14          85.79208
  101 Torsion                  4    10    16     6          20.69152
  102 Torsion                  4    10    16    14         -90.68785
  103 Torsion                  4    10    16    15         147.81784
  104 Torsion                  5     6     4    10        -113.40119
  105 Torsion                  5     6    16    10         113.40119
  106 Torsion                  5     6    16    14        -158.24585
  107 Torsion                  5     6    16    15         -16.24482
  108 Torsion                  6     4     2     8           0.00000
  109 Torsion                  6     4     2    12          87.37076
  110 Torsion                  6     4    10     9         108.48311
  111 Torsion                  6     4    10    12        -111.37937
  112 Torsion                  6     4    10    16         -20.69152
  113 Torsion                  6    16    10     9        -108.48311
  114 Torsion                  6    16    10    12         111.37937
  115 Torsion                  6    16    14     8           0.00000
  116 Torsion                  6    16    14    12         -87.37076
  117 Torsion                  6    16    14    13         144.16854
  118 Torsion                  7     8     2    12         113.40119
  119 Torsion                  7     8    14    12        -113.40119
  120 Torsion                  7     8    14    13          16.24482
  121 Torsion                  7     8    14    16         158.24585
  122 Torsion                  8     2     4    10         -87.37076
  123 Torsion                  8     2    12    10         111.37937
  124 Torsion                  8     2    12    11        -108.48311
  125 Torsion                  8     2    12    14          20.69152
  126 Torsion                  8    14    12    10        -111.37937
  127 Torsion                  8    14    12    11         108.48311
  128 Torsion                  8    14    16    10          87.37076
  129 Torsion                  8    14    16    15        -144.16854
  130 Torsion                  9    10    12    11           0.00000
  131 Torsion                  9    10    12    14        -137.10396
  132 Torsion                  9    10    16    14         140.13752
  133 Torsion                  9    10    16    15          18.64322
  134 Torsion                 10     4     2    12           0.00000
  135 Torsion                 10     4     6    16          21.59313
  136 Torsion                 10    12    14    13         121.49430
  137 Torsion                 10    12    14    16           0.00000
  138 Torsion                 10    16    14    12           0.00000
  139 Torsion                 10    16    14    13        -128.46069
  140 Torsion                 11    12    10    16         137.10396
  141 Torsion                 11    12    14    13         -18.64322
  142 Torsion                 11    12    14    16        -140.13752
  143 Torsion                 12     2     8    14         -21.59313
  144 Torsion                 12    10    16    14          -0.00000
  145 Torsion                 12    10    16    15        -121.49430
  146 Torsion                 12    14    16    15         128.46069
  147 Torsion                 13    14    16    15           0.00000
  148 Torsion                 14    12    10    16           0.00000


            XYZ format geometry
            -------------------
    16
 geometry
 H                     2.06764061     1.28283203    -0.00592891
 C                     1.08129134     0.80023067    -0.08243644
 H                     2.06764061    -1.28283203    -0.00592891
 C                     1.08129134    -0.80023067    -0.08243644
 H                     0.00000000    -2.35975410    -1.43482569
 C                     0.00000000    -1.35361119    -0.99836162
 H                     0.00000000     2.35975410    -1.43482569
 C                     0.00000000     1.35361119    -0.99836162
 H                     0.00000000    -1.47004282     1.93809275
 C                     0.00000000    -0.77970203     1.08133294
 H                     0.00000000     1.47004282     1.93809275
 C                     0.00000000     0.77970203     1.08133294
 H                    -2.06764061     1.28283203    -0.00592891
 C                    -1.08129134     0.80023067    -0.08243644
 H                    -2.06764061    -1.28283203    -0.00592891
 C                    -1.08129134    -0.80023067    -0.08243644

 ==============================================================================
                                internuclear distances
 ------------------------------------------------------------------------------
       center one      |      center two      | atomic units |  angstroms
 ------------------------------------------------------------------------------
    2 C                |   1 H                |     2.08011  |     1.10075
    4 C                |   2 C                |     3.02443  |     1.60046
    4 C                |   3 H                |     2.08011  |     1.10075
    6 C                |   4 C                |     2.87483  |     1.52130
    6 C                |   5 H                |     2.07253  |     1.09673
    8 C                |   2 C                |     2.87483  |     1.52130
    8 C                |   7 H                |     2.07253  |     1.09673
   10 C                |   4 C                |     3.00221  |     1.58870
   10 C                |   9 H                |     2.07922  |     1.10028
   12 C                |   2 C                |     3.00221  |     1.58870
   12 C                |  10 C                |     2.94685  |     1.55940
   12 C                |  11 H                |     2.07922  |     1.10028
   14 C                |   8 C                |     2.87483  |     1.52130
   14 C                |  12 C                |     3.00221  |     1.58870
   14 C                |  13 H                |     2.08011  |     1.10075
   16 C                |   6 C                |     2.87483  |     1.52130
   16 C                |  10 C                |     3.00221  |     1.58870
   16 C                |  14 C                |     3.02443  |     1.60046
   16 C                |  15 H                |     2.08011  |     1.10075
 ------------------------------------------------------------------------------
                         number of included internuclear distances:         19
 ==============================================================================



 ==============================================================================
                                 internuclear angles
 ------------------------------------------------------------------------------
        center 1       |       center 2       |       center 3       |  degrees
 ------------------------------------------------------------------------------
    1 H                |   2 C                |   4 C                |   116.00
    1 H                |   2 C                |   8 C                |   121.28
    1 H                |   2 C                |  12 C                |   124.38
    4 C                |   2 C                |   8 C                |   111.33
    4 C                |   2 C                |  12 C                |    89.26
    8 C                |   2 C                |  12 C                |    87.82
    2 C                |   4 C                |   3 H                |   116.00
    2 C                |   4 C                |   6 C                |   111.33
    2 C                |   4 C                |  10 C                |    89.26
    3 H                |   4 C                |   6 C                |   121.28
    3 H                |   4 C                |  10 C                |   124.38
    6 C                |   4 C                |  10 C                |    87.82
    4 C                |   6 C                |   5 H                |   124.98
    4 C                |   6 C                |  16 C                |    90.60
    5 H                |   6 C                |  16 C                |   124.98
    2 C                |   8 C                |   7 H                |   124.98
    2 C                |   8 C                |  14 C                |    90.60
    7 H                |   8 C                |  14 C                |   124.98
    4 C                |  10 C                |   9 H                |   124.21
    4 C                |  10 C                |  12 C                |    90.74
    4 C                |  10 C                |  16 C                |    85.78
    9 H                |  10 C                |  12 C                |   128.86
    9 H                |  10 C                |  16 C                |   124.21
   12 C                |  10 C                |  16 C                |    90.74
    2 C                |  12 C                |  10 C                |    90.74
    2 C                |  12 C                |  11 H                |   124.21
    2 C                |  12 C                |  14 C                |    85.78
   10 C                |  12 C                |  11 H                |   128.86
   10 C                |  12 C                |  14 C                |    90.74
   11 H                |  12 C                |  14 C                |   124.21
    8 C                |  14 C                |  12 C                |    87.82
    8 C                |  14 C                |  13 H                |   121.28
    8 C                |  14 C                |  16 C                |   111.33
   12 C                |  14 C                |  13 H                |   124.38
   12 C                |  14 C                |  16 C                |    89.26
   13 H                |  14 C                |  16 C                |   116.00
    6 C                |  16 C                |  10 C                |    87.82
    6 C                |  16 C                |  14 C                |   111.33
    6 C                |  16 C                |  15 H                |   121.28
   10 C                |  16 C                |  14 C                |    89.26
   10 C                |  16 C                |  15 H                |   124.38
   14 C                |  16 C                |  15 H                |   116.00
 ------------------------------------------------------------------------------
                            number of included internuclear angles:         42
 ==============================================================================



  library name resolved from: environment
  library file name is: </home/vladimir/bin/nwchem-6.8/src/basis/libraries/>
  
                      Basis "ao basis" -> "" (spherical)
                      -----
  H (Hydrogen)
  ------------
            Exponent  Coefficients 
       -------------- ---------------------------------------------------------
  1 S  3.38700000E+01  0.006068
  1 S  5.09500000E+00  0.045308
  1 S  1.15900000E+00  0.202822

  2 S  3.25800000E-01  1.000000

  3 S  1.02700000E-01  1.000000

  4 P  1.40700000E+00  1.000000

  5 P  3.88000000E-01  1.000000

  6 D  1.05700000E+00  1.000000

  C (Carbon)
  ----------
            Exponent  Coefficients 
       -------------- ---------------------------------------------------------
  1 S  8.23600000E+03  0.000531
  1 S  1.23500000E+03  0.004108
  1 S  2.80800000E+02  0.021087
  1 S  7.92700000E+01  0.081853
  1 S  2.55900000E+01  0.234817
  1 S  8.99700000E+00  0.434401
  1 S  3.31900000E+00  0.346129
  1 S  3.64300000E-01 -0.008983

  2 S  8.23600000E+03 -0.000113
  2 S  1.23500000E+03 -0.000878
  2 S  2.80800000E+02 -0.004540
  2 S  7.92700000E+01 -0.018133
  2 S  2.55900000E+01 -0.055760
  2 S  8.99700000E+00 -0.126895
  2 S  3.31900000E+00 -0.170352
  2 S  3.64300000E-01  0.598684

  3 S  9.05900000E-01  1.000000

  4 S  1.28500000E-01  1.000000

  5 P  1.87100000E+01  0.014031
  5 P  4.13300000E+00  0.086866
  5 P  1.20000000E+00  0.290216

  6 P  3.82700000E-01  1.000000

  7 P  1.20900000E-01  1.000000

  8 D  1.09700000E+00  1.000000

  9 D  3.18000000E-01  1.000000

 10 F  7.61000000E-01  1.000000



 Summary of "ao basis" -> "" (spherical)
 ------------------------------------------------------------------------------
       Tag                 Description            Shells   Functions and Types
 ---------------- ------------------------------  ------  ---------------------
 H                          cc-pVTZ                  6       14   3s2p1d
 C                          cc-pVTZ                 10       30   4s3p2d1f




                           NWChem Geometry Optimization
                           ----------------------------




               cubane T-biradical MP2/cc-pVTZ geometry optimization


 maximum gradient threshold         (gmax) =   0.000450
 rms gradient threshold             (grms) =   0.000300
 maximum cartesian step threshold   (xmax) =   0.001800
 rms cartesian step threshold       (xrms) =   0.001200
 fixed trust radius                (trust) =   0.300000
 maximum step size to saddle      (sadstp) =   0.100000
 energy precision                  (eprec) =   1.0D-07
 maximum number of steps          (nptopt) =   20
 initial hessian option           (inhess) =    0
 line search option               (linopt) =    1
 hessian update option            (modupd) =    1
 saddle point option              (modsad) =    0
 initial eigen-mode to follow     (moddir) =    0
 initial variable to follow       (vardir) =    0
 follow first negative mode     (firstneg) =    T
 apply conjugacy                    (opcg) =    F
 source of zmatrix                         =   autoz   


          -------------------
          Energy Minimization
          -------------------


 Names of Z-matrix variables 
    1              2              3              4              5         
    6              7              8              9             10         
   11             12             13             14             15         
   16             17             18             19             20         
   21             22             23             24             25         
   26             27             28             29             30         
   31             32             33             34             35         
   36             37             38             39             40         
   41             42             43             44             45         
   46             47             48             49             50         
   51             52             53             54             55         
   56             57             58             59             60         
   61             62             63             64             65         
   66             67             68             69             70         
   71             72             73             74             75         
   76             77             78             79             80         
   81             82             83             84             85         
   86             87             88             89             90         
   91             92             93             94             95         
   96             97             98             99            100         
  101            102            103            104            105         
  106            107            108            109            110         
  111            112            113            114            115         
  116            117            118            119            120         
  121            122            123            124            125         
  126            127            128            129            130         
  131            132            133            134            135         
  136            137            138            139            140         
  141            142            143            144            145         
  146            147            148         

 Variables with the same non-blank name are constrained to be equal


 Using diagonal initial Hessian 
 Scaling for Hessian diagonals: bonds = 1.00  angles = 0.25  torsions = 0.10

          --------
          Step   0
          --------


                         Geometry "geometry" -> "geometry"
                         ---------------------------------

 Output coordinates in angstroms (scale by  1.889725989 to convert to a.u.)

  No.       Tag          Charge          X              Y              Z
 ---- ---------------- ---------- -------------- -------------- --------------
    1 H                    1.0000     2.06764061     1.28283203    -0.00592891
    2 C                    6.0000     1.08129134     0.80023067    -0.08243644
    3 H                    1.0000     2.06764061    -1.28283203    -0.00592891
    4 C                    6.0000     1.08129134    -0.80023067    -0.08243644
    5 H                    1.0000     0.00000000    -2.35975410    -1.43482569
    6 C                    6.0000     0.00000000    -1.35361119    -0.99836162
    7 H                    1.0000     0.00000000     2.35975410    -1.43482569
    8 C                    6.0000     0.00000000     1.35361119    -0.99836162
    9 H                    1.0000     0.00000000    -1.47004282     1.93809275
   10 C                    6.0000     0.00000000    -0.77970203     1.08133294
   11 H                    1.0000     0.00000000     1.47004282     1.93809275
   12 C                    6.0000     0.00000000     0.77970203     1.08133294
   13 H                    1.0000    -2.06764061     1.28283203    -0.00592891
   14 C                    6.0000    -1.08129134     0.80023067    -0.08243644
   15 H                    1.0000    -2.06764061    -1.28283203    -0.00592891
   16 C                    6.0000    -1.08129134    -0.80023067    -0.08243644

      Atomic Mass 
      ----------- 

      H                  1.007825
      C                 12.000000


 Effective nuclear repulsion energy (a.u.)     355.6481113583

            Nuclear Dipole moment (a.u.) 
            ----------------------------
        X                 Y               Z
 ---------------- ---------------- ----------------
     0.0000000000     0.0000000000    -0.0000000000

      Symmetry information
      --------------------

 Group name             C2v       
 Group number             16
 Group order               4
 No. of unique centers     6

      Symmetry unique atoms

     1    2    5    6    9   10

                                 NWChem SCF Module
                                 -----------------


               cubane T-biradical MP2/cc-pVTZ geometry optimization



  ao basis        = "ao basis"
  functions       =   352
  atoms           =    16
  alpha electrons =    29
  beta  electrons =    27
  charge          =   0.00
  wavefunction    = UHF 
  input vectors   = atomic
  output vectors  = ./triplet.movecs
  use symmetry    = T
  symmetry adapt  = T


 Summary of "ao basis" -> "ao basis" (spherical)
 ------------------------------------------------------------------------------
       Tag                 Description            Shells   Functions and Types
 ---------------- ------------------------------  ------  ---------------------
 H                          cc-pVTZ                  6       14   3s2p1d
 C                          cc-pVTZ                 10       30   4s3p2d1f


      Symmetry analysis of basis
      --------------------------

        a1        104
        a2         72
        b1         72
        b2        104


 Forming initial guess at       0.4s


      Superposition of Atomic Density Guess
      -------------------------------------

 Sum of atomic energies:        -305.36244765

      Non-variational initial energy
      ------------------------------

 Total energy =    -311.187689
 1-e energy   =   -1114.480610
 2-e energy   =     447.644811
 HOMO         =      -0.138628
 LUMO         =      -0.130716


   Symmetry analysis of molecular orbitals - initial alpha
   -------------------------------------------------------

  Numbering of irreducible representations: 

     1 a1          2 a2          3 b1          4 b2      

  Orbital symmetries:

     1 a1          2 b1          3 b2          4 a2          5 a1      
     6 b2          7 a1          8 b2          9 a1         10 b2      
    11 b1         12 a1         13 b2         14 a2         15 a1      
    16 a1         17 b2         18 b2         19 a1         20 b1      
    21 a1         22 b1         23 b1         24 a2         25 b2      
    26 a1         27 a2         28 b2         29 a1         30 a1      
    31 b1         32 a1         33 b2         34 b2         35 a2      
    36 a1         37 b1         38 a1         39 b2      


   Symmetry analysis of molecular orbitals - initial beta
   ------------------------------------------------------

  Numbering of irreducible representations: 

     1 a1          2 a2          3 b1          4 b2      

  Orbital symmetries:

     1 a1          2 b1          3 b2          4 a2          5 a1      
     6 b2          7 a1          8 b2          9 a1         10 b2      
    11 b1         12 a1         13 b2         14 a2         15 a1      
    16 a1         17 b2         18 b2         19 a1         20 b1      
    21 a1         22 b1         23 b1         24 a2         25 b2      
    26 a1         27 a2         28 b2         29 a1         30 a1      
    31 b1         32 a1         33 b2         34 b2         35 a2      
    36 a1         37 b1         38 a1         39 b2      


 Starting SCF solution at       3.8s



 ----------------------------------------------
         Quadratically convergent UHF

 Convergence threshold     :          1.000E-06
 Maximum no. of iterations :           30
 Integral*density screening:          1.000E-08
 ----------------------------------------------


              iter       energy          gnorm     gmax       time
             ----- ------------------- --------- --------- --------
                 1     -307.3166641834  7.14D-01  1.03D-01     29.8
                 2     -307.4368669294  2.33D-01  3.85D-02     78.4
                 3     -307.4489401863  1.76D-02  4.04D-03    164.8
                 4     -307.4490518844  1.83D-04  2.79D-05    315.5
                 5     -307.4490519068  5.44D-08  6.83D-09    572.8


       Final UHF  results 
       ------------------ 

         Total SCF energy =   -307.449051906753
      One electron energy =  -1120.420620326291
      Two electron energy =    457.323457061212
 Nuclear repulsion energy =    355.648111358326

                       Sz =      1.0000
                 Sz(Sz+1) =      2.0000
                      S^2 =      2.0258

        Time for solution =    567.8s



       Symmetry analysis of molecular orbitals - alpha
       -----------------------------------------------

  Numbering of irreducible representations: 

     1 a1          2 a2          3 b1          4 b2      

  Orbital symmetries:

     1 a1          2 b2          3 b1          4 a1          5 a2      
     6 b2          7 a1          8 b2          9 a1         10 b2      
    11 b1         12 a1         13 b2         14 a2         15 a1      
    16 a1         17 b2         18 b2         19 a1         20 a1      
    21 b1         22 b1         23 b2         24 a2         25 b1      
    26 a1         27 a2         28 b2         29 a1         30 a1      
    31 b1         32 b2         33 a1         34 b2         35 a2      
    36 a1         37 b2         38 a1         39 b1      


       Symmetry analysis of molecular orbitals - beta
       ----------------------------------------------

  Numbering of irreducible representations: 

     1 a1          2 a2          3 b1          4 b2      

  Orbital symmetries:

     1 a1          2 b1          3 b2          4 a2          5 a1      
     6 b2          7 b2          8 a1          9 a1         10 b2      
    11 b1         12 a1         13 a2         14 b2         15 a1      
    16 a1         17 b2         18 b2         19 a1         20 b1      
    21 b1         22 a1         23 b1         24 a2         25 b2      
    26 a1         27 a2         28 a1         29 b2         30 a1      
    31 b1         32 b2         33 a1         34 a2         35 a1      
    36 b2         37 b2         38 a1         39 b1      

          Final alpha eigenvalues
          -----------------------

              1      
    1  -11.2366
    2  -11.2361
    3  -11.2350
    4  -11.2349
    5  -11.2345
    6  -11.2345
    7  -11.2315
    8  -11.2315
    9   -1.2220
   10   -1.0548
   11   -0.9631
   12   -0.9456
   13   -0.8048
   14   -0.7859
   15   -0.7751
   16   -0.7048
   17   -0.6502
   18   -0.6073
   19   -0.5954
   20   -0.5772
   21   -0.5740
   22   -0.5222
   23   -0.4503
   24   -0.4448
   25   -0.4447
   26   -0.4036
   27   -0.3808
   28   -0.3274
   29   -0.3187
   30    0.1401
   31    0.1632
   32    0.1668
   33    0.1675
   34    0.1963
   35    0.1970
   36    0.2000
   37    0.2269
   38    0.2313
   39    0.2408

          Final beta eigenvalues
          ----------------------

              1      
    1  -11.2359
    2  -11.2359
    3  -11.2355
    4  -11.2354
    5  -11.2330
    6  -11.2325
    7  -11.2071
    8  -11.2070
    9   -1.2050
   10   -1.0162
   11   -0.9601
   12   -0.9022
   13   -0.7840
   14   -0.7616
   15   -0.7430
   16   -0.6996
   17   -0.6345
   18   -0.6000
   19   -0.5784
   20   -0.5684
   21   -0.5144
   22   -0.5123
   23   -0.4334
   24   -0.4295
   25   -0.4117
   26   -0.3950
   27   -0.3750
   28    0.1299
   29    0.1325
   30    0.1435
   31    0.1648
   32    0.1771
   33    0.1792
   34    0.1980
   35    0.2052
   36    0.2059
   37    0.2293
   38    0.2382
   39    0.2431

                    UHF Final Alpha Molecular Orbital Analysis
                    ------------------------------------------

 Vector    9  Occ=1.000000D+00  E=-1.221986D+00  Symmetry=a1
              MO Center= -5.1D-15,  1.4D-15,  1.2D-01, r^2= 1.8D+00
   Bfn.  Coefficient  Atom+Function         Bfn.  Coefficient  Atom+Function  
  ----- ------------  ---------------      ----- ------------  ---------------
   192      0.186452  10 C  s               236      0.186452  12 C  s         
    16      0.169380   2 C  s                60      0.169380   4 C  s         
   280      0.169380  14 C  s               324      0.169380  16 C  s         

 Vector   10  Occ=1.000000D+00  E=-1.054827D+00  Symmetry=b2
              MO Center= -2.8D-17,  2.3D-15, -2.6D-01, r^2= 2.7D+00
   Bfn.  Coefficient  Atom+Function         Bfn.  Coefficient  Atom+Function  
  ----- ------------  ---------------      ----- ------------  ---------------
   104      0.238258   6 C  s               148     -0.238258   8 C  s         
    16     -0.152641   2 C  s                60      0.152641   4 C  s         
   280     -0.152641  14 C  s               324      0.152641  16 C  s         

 Vector   11  Occ=1.000000D+00  E=-9.630975D-01  Symmetry=b1
              MO Center= -2.1D-14,  1.2D-14, -1.6D-02, r^2= 2.8D+00
   Bfn.  Coefficient  Atom+Function         Bfn.  Coefficient  Atom+Function  
  ----- ------------  ---------------      ----- ------------  ---------------
    16      0.239114   2 C  s                60      0.239114   4 C  s         
   280     -0.239114  14 C  s               324     -0.239114  16 C  s         

 Vector   12  Occ=1.000000D+00  E=-9.455520D-01  Symmetry=a1
              MO Center= -4.3D-15, -4.1D-19,  3.6D-02, r^2= 3.2D+00
   Bfn.  Coefficient  Atom+Function         Bfn.  Coefficient  Atom+Function  
  ----- ------------  ---------------      ----- ------------  ---------------
   104      0.241968   6 C  s               148      0.241968   8 C  s         
   192     -0.233104  10 C  s               236     -0.233104  12 C  s         

 Vector   13  Occ=1.000000D+00  E=-8.047666D-01  Symmetry=b2
              MO Center= -6.9D-18, -2.0D-16,  1.6D-01, r^2= 4.2D+00
   Bfn.  Coefficient  Atom+Function         Bfn.  Coefficient  Atom+Function  
  ----- ------------  ---------------      ----- ------------  ---------------
   192     -0.235465  10 C  s               236      0.235465  12 C  s         
   104      0.217074   6 C  s               148     -0.217074   8 C  s         
   106      0.173172   6 C  s               150     -0.173172   8 C  s         

 Vector   14  Occ=1.000000D+00  E=-7.858573D-01  Symmetry=a2
              MO Center=  0.0D+00, -5.3D-16, -1.2D-01, r^2= 3.9D+00
   Bfn.  Coefficient  Atom+Function         Bfn.  Coefficient  Atom+Function  
  ----- ------------  ---------------      ----- ------------  ---------------
    16      0.213324   2 C  s                60     -0.213324   4 C  s         
   280     -0.213324  14 C  s               324      0.213324  16 C  s         

 Vector   15  Occ=1.000000D+00  E=-7.750732D-01  Symmetry=a1
              MO Center=  6.2D-14, -2.5D-15, -2.5D-02, r^2= 4.3D+00
   Bfn.  Coefficient  Atom+Function         Bfn.  Coefficient  Atom+Function  
  ----- ------------  ---------------      ----- ------------  ---------------
   104      0.170950   6 C  s               148      0.170950   8 C  s         

 Vector   16  Occ=1.000000D+00  E=-7.047653D-01  Symmetry=a1
              MO Center= -8.7D-14, -3.3D-15,  1.9D-01, r^2= 4.3D+00
   Bfn.  Coefficient  Atom+Function         Bfn.  Coefficient  Atom+Function  
  ----- ------------  ---------------      ----- ------------  ---------------
    22      0.108130   2 C  px               66      0.108130   4 C  px        
   286     -0.108130  14 C  px              330     -0.108130  16 C  px        

 Vector   17  Occ=1.000000D+00  E=-6.502388D-01  Symmetry=b2
              MO Center=  3.7D-15,  2.3D-13,  1.8D-01, r^2= 5.3D+00
   Bfn.  Coefficient  Atom+Function         Bfn.  Coefficient  Atom+Function  
  ----- ------------  ---------------      ----- ------------  ---------------
   192      0.130521  10 C  s               236     -0.130521  12 C  s         
    16      0.126117   2 C  s                60     -0.126117   4 C  s         
   280      0.126117  14 C  s               324     -0.126117  16 C  s         

 Vector   18  Occ=1.000000D+00  E=-6.073299D-01  Symmetry=b2
              MO Center=  9.7D-15,  4.6D-15, -1.1D-01, r^2= 4.5D+00
   Bfn.  Coefficient  Atom+Function         Bfn.  Coefficient  Atom+Function  
  ----- ------------  ---------------      ----- ------------  ---------------
    22      0.123822   2 C  px               66     -0.123822   4 C  px        
   286     -0.123822  14 C  px              330      0.123822  16 C  px        
     2      0.115231   1 H  s                46     -0.115231   3 H  s         
   266      0.115231  13 H  s               310     -0.115231  15 H  s         

 Vector   19  Occ=1.000000D+00  E=-5.953783D-01  Symmetry=a1
              MO Center=  3.6D-14,  1.2D-14, -1.4D-01, r^2= 3.7D+00
   Bfn.  Coefficient  Atom+Function         Bfn.  Coefficient  Atom+Function  
  ----- ------------  ---------------      ----- ------------  ---------------
   112      0.165268   6 C  pz              156      0.165268   8 C  pz        
   199     -0.164323  10 C  py              243      0.164323  12 C  py        

 Vector   20  Occ=1.000000D+00  E=-5.771884D-01  Symmetry=a1
              MO Center=  5.0D-13,  1.8D-14,  1.2D-01, r^2= 3.9D+00
   Bfn.  Coefficient  Atom+Function         Bfn.  Coefficient  Atom+Function  
  ----- ------------  ---------------      ----- ------------  ---------------
   111      0.162930   6 C  py              155     -0.162930   8 C  py        

 Vector   21  Occ=1.000000D+00  E=-5.739818D-01  Symmetry=b1
              MO Center=  2.7D-13,  8.5D-15,  7.9D-02, r^2= 3.2D+00
   Bfn.  Coefficient  Atom+Function         Bfn.  Coefficient  Atom+Function  
  ----- ------------  ---------------      ----- ------------  ---------------
   198      0.145664  10 C  px              242      0.145664  12 C  px        

 Vector   22  Occ=1.000000D+00  E=-5.222493D-01  Symmetry=b1
              MO Center= -4.3D-13,  1.1D-16, -2.7D-01, r^2= 3.7D+00
   Bfn.  Coefficient  Atom+Function         Bfn.  Coefficient  Atom+Function  
  ----- ------------  ---------------      ----- ------------  ---------------
   110      0.150909   6 C  px              154      0.150909   8 C  px        

 Vector   23  Occ=1.000000D+00  E=-4.503421D-01  Symmetry=b2
              MO Center= -1.4D-17,  1.8D-14, -2.2D-01, r^2= 4.0D+00
   Bfn.  Coefficient  Atom+Function         Bfn.  Coefficient  Atom+Function  
  ----- ------------  ---------------      ----- ------------  ---------------
   111      0.203676   6 C  py              155      0.203676   8 C  py        

 Vector   24  Occ=1.000000D+00  E=-4.448345D-01  Symmetry=a2
              MO Center=  1.7D-16,  5.5D-15, -4.2D-01, r^2= 3.6D+00
   Bfn.  Coefficient  Atom+Function         Bfn.  Coefficient  Atom+Function  
  ----- ------------  ---------------      ----- ------------  ---------------
   110      0.209475   6 C  px              154     -0.209475   8 C  px        
   107      0.156638   6 C  px              151     -0.156638   8 C  px        

 Vector   25  Occ=1.000000D+00  E=-4.447398D-01  Symmetry=b1
              MO Center= -6.9D-14, -1.9D-14,  3.9D-02, r^2= 2.8D+00
   Bfn.  Coefficient  Atom+Function         Bfn.  Coefficient  Atom+Function  
  ----- ------------  ---------------      ----- ------------  ---------------
    23      0.174749   2 C  py               67     -0.174749   4 C  py        
   287     -0.174749  14 C  py              331      0.174749  16 C  py        

 Vector   26  Occ=1.000000D+00  E=-4.035898D-01  Symmetry=a1
              MO Center= -3.2D-13,  4.3D-15,  3.8D-01, r^2= 3.3D+00
   Bfn.  Coefficient  Atom+Function         Bfn.  Coefficient  Atom+Function  
  ----- ------------  ---------------      ----- ------------  ---------------
   199      0.210683  10 C  py              243     -0.210683  12 C  py        
   196      0.155503  10 C  py              240     -0.155503  12 C  py        

 Vector   27  Occ=1.000000D+00  E=-3.807832D-01  Symmetry=a2
              MO Center=  7.2D-16,  1.0D-14,  4.5D-01, r^2= 3.0D+00
   Bfn.  Coefficient  Atom+Function         Bfn.  Coefficient  Atom+Function  
  ----- ------------  ---------------      ----- ------------  ---------------
   198      0.219349  10 C  px              242     -0.219349  12 C  px        
   195      0.157242  10 C  px              239     -0.157242  12 C  px        
   201      0.152437  10 C  px              245     -0.152437  12 C  px        

 Vector   28  Occ=1.000000D+00  E=-3.274051D-01  Symmetry=b2
              MO Center= -1.1D-15, -2.5D-13, -6.0D-01, r^2= 3.5D+00
   Bfn.  Coefficient  Atom+Function         Bfn.  Coefficient  Atom+Function  
  ----- ------------  ---------------      ----- ------------  ---------------
   115      0.273856   6 C  pz              159     -0.273856   8 C  pz        
   112      0.270854   6 C  pz              156     -0.270854   8 C  pz        
   109      0.189604   6 C  pz              153     -0.189604   8 C  pz        
   194     -0.184632  10 C  s               238      0.184632  12 C  s         

 Vector   29  Occ=1.000000D+00  E=-3.187399D-01  Symmetry=a1
              MO Center=  1.2D-13, -1.7D-13, -5.9D-01, r^2= 3.5D+00
   Bfn.  Coefficient  Atom+Function         Bfn.  Coefficient  Atom+Function  
  ----- ------------  ---------------      ----- ------------  ---------------
   115      0.238278   6 C  pz              159      0.238278   8 C  pz        
   112      0.215216   6 C  pz              156      0.215216   8 C  pz        

 Vector   30  Occ=0.000000D+00  E= 1.401039D-01  Symmetry=a1
              MO Center= -3.2D-14, -2.5D-16,  3.5D-01, r^2= 1.2D+01
   Bfn.  Coefficient  Atom+Function         Bfn.  Coefficient  Atom+Function  
  ----- ------------  ---------------      ----- ------------  ---------------
   179      0.970358   9 H  s               223      0.970358  11 H  s         
     3      0.905420   1 H  s                47      0.905420   3 H  s         
   267      0.905420  13 H  s               311      0.905420  15 H  s         
   106     -0.815404   6 C  s               150     -0.815404   8 C  s         
    18     -0.804425   2 C  s                62     -0.804425   4 C  s         

 Vector   31  Occ=0.000000D+00  E= 1.632258D-01  Symmetry=b1
              MO Center=  5.6D-15, -3.8D-16,  8.3D-02, r^2= 1.2D+01
   Bfn.  Coefficient  Atom+Function         Bfn.  Coefficient  Atom+Function  
  ----- ------------  ---------------      ----- ------------  ---------------
    18      1.477760   2 C  s                62      1.477760   4 C  s         
   282     -1.477760  14 C  s               326     -1.477760  16 C  s         
     3     -1.339383   1 H  s                47     -1.339383   3 H  s         
   267      1.339383  13 H  s               311      1.339383  15 H  s         
    25      0.577673   2 C  px               69      0.577673   4 C  px        

 Vector   32  Occ=0.000000D+00  E= 1.668255D-01  Symmetry=b2
              MO Center=  3.9D-15,  2.6D-17, -1.8D-01, r^2= 1.4D+01
   Bfn.  Coefficient  Atom+Function         Bfn.  Coefficient  Atom+Function  
  ----- ------------  ---------------      ----- ------------  ---------------
    18      2.293877   2 C  s                62     -2.293877   4 C  s         
   282      2.293877  14 C  s               326     -2.293877  16 C  s         
    91      1.701958   5 H  s               135     -1.701958   7 H  s         
   114      1.377618   6 C  py              158      1.377618   8 C  py        
   179      1.345252   9 H  s               223     -1.345252  11 H  s         

 Vector   33  Occ=0.000000D+00  E= 1.675222D-01  Symmetry=a1
              MO Center= -3.3D-14, -5.1D-15,  6.5D-01, r^2= 1.0D+01
   Bfn.  Coefficient  Atom+Function         Bfn.  Coefficient  Atom+Function  
  ----- ------------  ---------------      ----- ------------  ---------------
   194     -1.947764  10 C  s               238     -1.947764  12 C  s         
   106      1.773472   6 C  s               150      1.773472   8 C  s         
   179      1.246098   9 H  s               223      1.246098  11 H  s         
    91     -0.842389   5 H  s               135     -0.842389   7 H  s         
   202      0.588756  10 C  py              246     -0.588756  12 C  py        

 Vector   34  Occ=0.000000D+00  E= 1.963305D-01  Symmetry=b2
              MO Center=  9.7D-16, -3.2D-15,  7.5D-01, r^2= 1.3D+01
   Bfn.  Coefficient  Atom+Function         Bfn.  Coefficient  Atom+Function  
  ----- ------------  ---------------      ----- ------------  ---------------
   179      2.150011   9 H  s               223     -2.150011  11 H  s         
   106      2.040197   6 C  s               150     -2.040197   8 C  s         
   203     -1.756328  10 C  pz              247      1.756328  12 C  pz        
    91     -1.421583   5 H  s               135      1.421583   7 H  s         
    18      1.090844   2 C  s                62     -1.090844   4 C  s         

 Vector   35  Occ=0.000000D+00  E= 1.970112D-01  Symmetry=a2
              MO Center=  1.8D-15,  8.9D-15,  3.4D-02, r^2= 1.3D+01
   Bfn.  Coefficient  Atom+Function         Bfn.  Coefficient  Atom+Function  
  ----- ------------  ---------------      ----- ------------  ---------------
     3      1.906204   1 H  s                47     -1.906204   3 H  s         
   267     -1.906204  13 H  s               311      1.906204  15 H  s         
    18     -1.876923   2 C  s                62      1.876923   4 C  s         
   282      1.876923  14 C  s               326     -1.876923  16 C  s         
    25     -1.544127   2 C  px               69      1.544127   4 C  px        

 Vector   36  Occ=0.000000D+00  E= 2.000452D-01  Symmetry=a1
              MO Center= -4.2D-15,  4.7D-15,  9.3D-02, r^2= 1.4D+01
   Bfn.  Coefficient  Atom+Function         Bfn.  Coefficient  Atom+Function  
  ----- ------------  ---------------      ----- ------------  ---------------
    91      1.434372   5 H  s               135      1.434372   7 H  s         
   179      1.345176   9 H  s               223      1.345176  11 H  s         
     3     -1.247313   1 H  s                47     -1.247313   3 H  s         
   267     -1.247313  13 H  s               311     -1.247313  15 H  s         
   106     -1.099484   6 C  s               150     -1.099484   8 C  s         

 Vector   37  Occ=0.000000D+00  E= 2.269105D-01  Symmetry=b2
              MO Center=  1.4D-14, -3.7D-14,  2.4D-01, r^2= 1.5D+01
   Bfn.  Coefficient  Atom+Function         Bfn.  Coefficient  Atom+Function  
  ----- ------------  ---------------      ----- ------------  ---------------
   194      3.803970  10 C  s               238     -3.803970  12 C  s         
    25     -2.484293   2 C  px               69      2.484293   4 C  px        
   289      2.484293  14 C  px              333     -2.484293  16 C  px        
    18      2.466054   2 C  s                62     -2.466054   4 C  s         
   282      2.466054  14 C  s               326     -2.466054  16 C  s         

 Vector   38  Occ=0.000000D+00  E= 2.312588D-01  Symmetry=a1
              MO Center=  5.6D-14,  1.6D-13,  5.2D-02, r^2= 9.8D+00
   Bfn.  Coefficient  Atom+Function         Bfn.  Coefficient  Atom+Function  
  ----- ------------  ---------------      ----- ------------  ---------------
   203      1.509580  10 C  pz              247      1.509580  12 C  pz        
    91      1.399871   5 H  s               135      1.399871   7 H  s         
   194     -1.374367  10 C  s               238     -1.374367  12 C  s         
   179     -1.285506   9 H  s               223     -1.285506  11 H  s         
   114      0.871633   6 C  py              158     -0.871633   8 C  py        

 Vector   39  Occ=0.000000D+00  E= 2.408113D-01  Symmetry=b1
              MO Center= -9.9D-15, -1.0D-14,  3.7D-01, r^2= 7.6D+00
   Bfn.  Coefficient  Atom+Function         Bfn.  Coefficient  Atom+Function  
  ----- ------------  ---------------      ----- ------------  ---------------
    25      1.325986   2 C  px               69      1.325986   4 C  px        
   289      1.325986  14 C  px              333      1.325986  16 C  px        
     3     -1.120604   1 H  s                18     -1.125020   2 C  s         
    47     -1.120604   3 H  s                62     -1.125020   4 C  s         
   267      1.120604  13 H  s               282      1.125020  14 C  s         

 Vector   40  Occ=0.000000D+00  E= 2.703260D-01  Symmetry=b2
              MO Center=  2.8D-15, -7.9D-16,  6.9D-01, r^2= 6.7D+00
   Bfn.  Coefficient  Atom+Function         Bfn.  Coefficient  Atom+Function  
  ----- ------------  ---------------      ----- ------------  ---------------
   202     -2.008383  10 C  py              246     -2.008383  12 C  py        
    18      1.865613   2 C  s                62     -1.865613   4 C  s         
   282      1.865613  14 C  s               326     -1.865613  16 C  s         
   194     -1.717616  10 C  s               238      1.717616  12 C  s         
   106      1.151471   6 C  s               150     -1.151471   8 C  s         

 Vector   41  Occ=0.000000D+00  E= 3.400659D-01  Symmetry=a2
              MO Center=  1.9D-14, -5.4D-15, -2.8D-01, r^2= 8.7D+00
   Bfn.  Coefficient  Atom+Function         Bfn.  Coefficient  Atom+Function  
  ----- ------------  ---------------      ----- ------------  ---------------
    18      4.581858   2 C  s                62     -4.581858   4 C  s         
   282     -4.581858  14 C  s               326      4.581858  16 C  s         
    26     -2.469142   2 C  py               70     -2.469142   4 C  py        
   290      2.469142  14 C  py              334      2.469142  16 C  py        
    25     -1.975015   2 C  px               69      1.975015   4 C  px        

 Vector   42  Occ=0.000000D+00  E= 3.405159D-01  Symmetry=b1
              MO Center= -8.3D-15,  4.9D-15, -5.7D-01, r^2= 6.3D+00
   Bfn.  Coefficient  Atom+Function         Bfn.  Coefficient  Atom+Function  
  ----- ------------  ---------------      ----- ------------  ---------------
   113      1.970117   6 C  px              157      1.970117   8 C  px        
    18     -1.137218   2 C  s                62     -1.137218   4 C  s         
   282      1.137218  14 C  s               326      1.137218  16 C  s         
    27      1.080876   2 C  pz               71      1.080876   4 C  pz        
   291     -1.080876  14 C  pz              335     -1.080876  16 C  pz        

 Vector   43  Occ=0.000000D+00  E= 3.409579D-01  Symmetry=b2
              MO Center= -1.1D-15, -2.2D-15, -4.0D-01, r^2= 8.5D+00
   Bfn.  Coefficient  Atom+Function         Bfn.  Coefficient  Atom+Function  
  ----- ------------  ---------------      ----- ------------  ---------------
   194     -4.872535  10 C  s               238      4.872535  12 C  s         
   106      4.741518   6 C  s               150     -4.741518   8 C  s         
   203      2.366780  10 C  pz              247     -2.366780  12 C  pz        
   115      2.200497   6 C  pz              159     -2.200497   8 C  pz        
   114      2.100530   6 C  py              158      2.100530   8 C  py        

 Vector   44  Occ=0.000000D+00  E= 3.495432D-01  Symmetry=a2
              MO Center= -1.9D-14,  7.2D-16, -3.9D-01, r^2= 7.1D+00
   Bfn.  Coefficient  Atom+Function         Bfn.  Coefficient  Atom+Function  
  ----- ------------  ---------------      ----- ------------  ---------------
    18      3.155129   2 C  s                62     -3.155129   4 C  s         
   282     -3.155129  14 C  s               326      3.155129  16 C  s         
    25     -2.232201   2 C  px               69      2.232201   4 C  px        
   289     -2.232201  14 C  px              333      2.232201  16 C  px        
   113      1.605706   6 C  px              157     -1.605706   8 C  px        

 Vector   45  Occ=0.000000D+00  E= 3.507972D-01  Symmetry=a1
              MO Center= -2.0D-13, -1.2D-12,  3.2D-01, r^2= 7.7D+00
   Bfn.  Coefficient  Atom+Function         Bfn.  Coefficient  Atom+Function  
  ----- ------------  ---------------      ----- ------------  ---------------
   106      4.230367   6 C  s               150      4.230367   8 C  s         
    18     -3.797024   2 C  s                62     -3.797024   4 C  s         
   282     -3.797024  14 C  s               326     -3.797024  16 C  s         
   194      3.260931  10 C  s               238      3.260931  12 C  s         
   115      2.037599   6 C  pz              159      2.037599   8 C  pz        

 Vector   46  Occ=0.000000D+00  E= 3.624938D-01  Symmetry=a1
              MO Center=  6.7D-14,  2.8D-13, -8.7D-01, r^2= 6.2D+00
   Bfn.  Coefficient  Atom+Function         Bfn.  Coefficient  Atom+Function  
  ----- ------------  ---------------      ----- ------------  ---------------
   115      1.164177   6 C  pz              159      1.164177   8 C  pz        
   194     -1.091272  10 C  s               238     -1.091272  12 C  s         
   106      0.879858   6 C  s               150      0.879858   8 C  s         
   178      0.612862   9 H  s               222      0.612862  11 H  s         
   114      0.501063   6 C  py              158     -0.501063   8 C  py        

 Vector   47  Occ=0.000000D+00  E= 3.862645D-01  Symmetry=b1
              MO Center=  1.2D-13, -3.2D-16,  5.9D-02, r^2= 6.7D+00
   Bfn.  Coefficient  Atom+Function         Bfn.  Coefficient  Atom+Function  
  ----- ------------  ---------------      ----- ------------  ---------------
    27      0.521297   2 C  pz               71      0.521297   4 C  pz        
   291     -0.521297  14 C  pz              335     -0.521297  16 C  pz        
   198     -0.345033  10 C  px              242     -0.345033  12 C  px        
   110      0.296843   6 C  px              154      0.296843   8 C  px        
    26     -0.287591   2 C  py               70      0.287591   4 C  py        

 Vector   48  Occ=0.000000D+00  E= 4.055235D-01  Symmetry=a1
              MO Center= -4.6D-14, -1.4D-14, -5.2D-02, r^2= 8.0D+00
   Bfn.  Coefficient  Atom+Function         Bfn.  Coefficient  Atom+Function  
  ----- ------------  ---------------      ----- ------------  ---------------
   106      2.071632   6 C  s               150      2.071632   8 C  s         
    18     -1.652268   2 C  s                62     -1.652268   4 C  s         
   282     -1.652268  14 C  s               326     -1.652268  16 C  s         
   115      1.469666   6 C  pz              159      1.469666   8 C  pz        
    25      1.261979   2 C  px               69      1.261979   4 C  px        

 Vector   49  Occ=0.000000D+00  E= 4.141022D-01  Symmetry=b2
              MO Center=  5.6D-16,  6.8D-13, -9.3D-01, r^2= 7.4D+00
   Bfn.  Coefficient  Atom+Function         Bfn.  Coefficient  Atom+Function  
  ----- ------------  ---------------      ----- ------------  ---------------
   106      6.607892   6 C  s               150     -6.607892   8 C  s         
    18      6.475397   2 C  s                62     -6.475397   4 C  s         
   282      6.475397  14 C  s               326     -6.475397  16 C  s         
   194      4.530105  10 C  s               238     -4.530105  12 C  s         
    25     -3.375536   2 C  px               69      3.375536   4 C  px        

 Vector   50  Occ=0.000000D+00  E= 4.186224D-01  Symmetry=b1
              MO Center= -1.6D-14,  1.7D-15,  2.1D-01, r^2= 7.7D+00
   Bfn.  Coefficient  Atom+Function         Bfn.  Coefficient  Atom+Function  
  ----- ------------  ---------------      ----- ------------  ---------------
    26      0.825363   2 C  py               70     -0.825363   4 C  py        
   290     -0.825363  14 C  py              334      0.825363  16 C  py        
   201      0.570725  10 C  px              245      0.570725  12 C  px        
    25     -0.373311   2 C  px               69     -0.373311   4 C  px        
   289     -0.373311  14 C  px              333     -0.373311  16 C  px        

 Vector   51  Occ=0.000000D+00  E= 4.226133D-01  Symmetry=a2
              MO Center= -1.1D-15,  3.6D-15,  7.5D-01, r^2= 7.4D+00
   Bfn.  Coefficient  Atom+Function         Bfn.  Coefficient  Atom+Function  
  ----- ------------  ---------------      ----- ------------  ---------------
   201      2.474289  10 C  px              245     -2.474289  12 C  px        
   113     -1.542402   6 C  px              157      1.542402   8 C  px        
    27      1.024239   2 C  pz               71     -1.024239   4 C  pz        
   291     -1.024239  14 C  pz              335      1.024239  16 C  pz        
    18      0.776063   2 C  s                62     -0.776063   4 C  s         

 Vector   52  Occ=0.000000D+00  E= 4.355974D-01  Symmetry=a1
              MO Center= -2.7D-15, -6.8D-14,  4.4D-01, r^2= 7.1D+00
   Bfn.  Coefficient  Atom+Function         Bfn.  Coefficient  Atom+Function  
  ----- ------------  ---------------      ----- ------------  ---------------
   203      1.315233  10 C  pz              247      1.315233  12 C  pz        
   115      1.024837   6 C  pz              159      1.024837   8 C  pz        
   194     -0.922033  10 C  s               238     -0.922033  12 C  s         
   106      0.503650   6 C  s               150      0.503650   8 C  s         
   178     -0.379316   9 H  s               222     -0.379316  11 H  s         

 Vector   53  Occ=0.000000D+00  E= 4.452188D-01  Symmetry=b2
              MO Center=  8.8D-14,  3.6D-12,  1.1D-01, r^2= 8.3D+00
   Bfn.  Coefficient  Atom+Function         Bfn.  Coefficient  Atom+Function  
  ----- ------------  ---------------      ----- ------------  ---------------
   194     10.206317  10 C  s               238    -10.206317  12 C  s         
    18      8.180274   2 C  s                62     -8.180274   4 C  s         
   282      8.180274  14 C  s               326     -8.180274  16 C  s         
   202      4.889779  10 C  py              246      4.889779  12 C  py        
    26     -3.304926   2 C  py               70     -3.304926   4 C  py        

 Vector   54  Occ=0.000000D+00  E= 4.953751D-01  Symmetry=a2
              MO Center=  3.7D-14, -8.1D-16, -1.7D-01, r^2= 7.3D+00
   Bfn.  Coefficient  Atom+Function         Bfn.  Coefficient  Atom+Function  
  ----- ------------  ---------------      ----- ------------  ---------------
    27      2.720829   2 C  pz               71     -2.720829   4 C  pz        
   291     -2.720829  14 C  pz              335      2.720829  16 C  pz        
    18      2.111541   2 C  s                62     -2.111541   4 C  s         
   282     -2.111541  14 C  s               326      2.111541  16 C  s         
    26     -2.094377   2 C  py               70     -2.094377   4 C  py        

 Vector   55  Occ=0.000000D+00  E= 5.107863D-01  Symmetry=a1
              MO Center=  1.1D-14, -3.9D-12, -8.9D-02, r^2= 6.7D+00
   Bfn.  Coefficient  Atom+Function         Bfn.  Coefficient  Atom+Function  
  ----- ------------  ---------------      ----- ------------  ---------------
   194      2.516170  10 C  s               238      2.516170  12 C  s         
    18     -1.583761   2 C  s                62     -1.583761   4 C  s         
   282     -1.583761  14 C  s               326     -1.583761  16 C  s         
   203     -1.430989  10 C  pz              247     -1.430989  12 C  pz        
   202      1.068414  10 C  py              246     -1.068414  12 C  py        


                     UHF Final Beta Molecular Orbital Analysis
                     -----------------------------------------

 Vector    9  Occ=1.000000D+00  E=-1.204993D+00  Symmetry=a1
              MO Center= -2.0D-14,  4.4D-15,  1.9D-01, r^2= 1.8D+00
   Bfn.  Coefficient  Atom+Function         Bfn.  Coefficient  Atom+Function  
  ----- ------------  ---------------      ----- ------------  ---------------
   192      0.191187  10 C  s               236      0.191187  12 C  s         
    16      0.173631   2 C  s                60      0.173631   4 C  s         
   280      0.173631  14 C  s               324      0.173631  16 C  s         

 Vector   10  Occ=1.000000D+00  E=-1.016225D+00  Symmetry=b2
              MO Center= -2.8D-17, -2.3D-15, -1.0D-01, r^2= 2.7D+00
   Bfn.  Coefficient  Atom+Function         Bfn.  Coefficient  Atom+Function  
  ----- ------------  ---------------      ----- ------------  ---------------
   104      0.190705   6 C  s               148     -0.190705   8 C  s         
    16     -0.167309   2 C  s                60      0.167309   4 C  s         
   280     -0.167309  14 C  s               324      0.167309  16 C  s         

 Vector   11  Occ=1.000000D+00  E=-9.600566D-01  Symmetry=b1
              MO Center=  6.8D-15, -4.1D-17, -1.4D-02, r^2= 2.8D+00
   Bfn.  Coefficient  Atom+Function         Bfn.  Coefficient  Atom+Function  
  ----- ------------  ---------------      ----- ------------  ---------------
    16      0.240320   2 C  s                60      0.240320   4 C  s         
   280     -0.240320  14 C  s               324     -0.240320  16 C  s         

 Vector   12  Occ=1.000000D+00  E=-9.021665D-01  Symmetry=a1
              MO Center=  5.9D-13,  1.5D-14,  3.0D-01, r^2= 3.0D+00
   Bfn.  Coefficient  Atom+Function         Bfn.  Coefficient  Atom+Function  
  ----- ------------  ---------------      ----- ------------  ---------------
   192      0.246332  10 C  s               236      0.246332  12 C  s         
   104     -0.186539   6 C  s               148     -0.186539   8 C  s         

 Vector   13  Occ=1.000000D+00  E=-7.839555D-01  Symmetry=a2
              MO Center=  1.6D-14, -7.2D-16, -1.1D-01, r^2= 3.9D+00
   Bfn.  Coefficient  Atom+Function         Bfn.  Coefficient  Atom+Function  
  ----- ------------  ---------------      ----- ------------  ---------------
    16      0.216833   2 C  s                60     -0.216833   4 C  s         
   280     -0.216833  14 C  s               324      0.216833  16 C  s         

 Vector   14  Occ=1.000000D+00  E=-7.615518D-01  Symmetry=b2
              MO Center=  3.2D-15,  3.2D-14,  3.9D-01, r^2= 4.3D+00
   Bfn.  Coefficient  Atom+Function         Bfn.  Coefficient  Atom+Function  
  ----- ------------  ---------------      ----- ------------  ---------------
   192      0.234556  10 C  s               236     -0.234556  12 C  s         
   104     -0.194068   6 C  s               148      0.194068   8 C  s         

 Vector   15  Occ=1.000000D+00  E=-7.430350D-01  Symmetry=a1
              MO Center= -1.0D-13, -6.6D-14, -2.3D-01, r^2= 4.3D+00
   Bfn.  Coefficient  Atom+Function         Bfn.  Coefficient  Atom+Function  
  ----- ------------  ---------------      ----- ------------  ---------------
   104      0.190197   6 C  s               148      0.190197   8 C  s         

 Vector   16  Occ=1.000000D+00  E=-6.995515D-01  Symmetry=a1
              MO Center= -2.1D-14, -6.7D-15,  2.4D-01, r^2= 4.4D+00
   Bfn.  Coefficient  Atom+Function         Bfn.  Coefficient  Atom+Function  
  ----- ------------  ---------------      ----- ------------  ---------------
   178      0.102582   9 H  s               222      0.102582  11 H  s         
    22      0.099302   2 C  px               66      0.099302   4 C  px        
   286     -0.099302  14 C  px              330     -0.099302  16 C  px        

 Vector   17  Occ=1.000000D+00  E=-6.344557D-01  Symmetry=b2
              MO Center= -3.6D-15,  7.3D-14, -1.4D-01, r^2= 5.5D+00
   Bfn.  Coefficient  Atom+Function         Bfn.  Coefficient  Atom+Function  
  ----- ------------  ---------------      ----- ------------  ---------------
    16      0.124517   2 C  s                60     -0.124517   4 C  s         
   104      0.124558   6 C  s               148     -0.124558   8 C  s         
   280      0.124517  14 C  s               324     -0.124517  16 C  s         
    90      0.113860   5 H  s               134     -0.113860   7 H  s         

 Vector   18  Occ=1.000000D+00  E=-6.000087D-01  Symmetry=b2
              MO Center=  1.9D-15, -1.3D-15, -1.5D-01, r^2= 4.6D+00
   Bfn.  Coefficient  Atom+Function         Bfn.  Coefficient  Atom+Function  
  ----- ------------  ---------------      ----- ------------  ---------------
    22      0.121174   2 C  px               66     -0.121174   4 C  px        
   286     -0.121174  14 C  px              330      0.121174  16 C  px        

 Vector   19  Occ=1.000000D+00  E=-5.783810D-01  Symmetry=a1
              MO Center=  2.3D-12, -8.8D-14, -7.6D-03, r^2= 4.7D+00
   Bfn.  Coefficient  Atom+Function         Bfn.  Coefficient  Atom+Function  
  ----- ------------  ---------------      ----- ------------  ---------------
   199      0.162152  10 C  py              243     -0.162152  12 C  py        

 Vector   20  Occ=1.000000D+00  E=-5.683766D-01  Symmetry=b1
              MO Center= -2.8D-12,  6.6D-15,  1.1D-01, r^2= 3.2D+00
   Bfn.  Coefficient  Atom+Function         Bfn.  Coefficient  Atom+Function  
  ----- ------------  ---------------      ----- ------------  ---------------
   198      0.142245  10 C  px              242      0.142245  12 C  px        

 Vector   21  Occ=1.000000D+00  E=-5.144072D-01  Symmetry=b1
              MO Center=  3.3D-13,  1.6D-14, -2.7D-01, r^2= 3.5D+00
   Bfn.  Coefficient  Atom+Function         Bfn.  Coefficient  Atom+Function  
  ----- ------------  ---------------      ----- ------------  ---------------
   110      0.141547   6 C  px              154      0.141547   8 C  px        

 Vector   22  Occ=1.000000D+00  E=-5.123165D-01  Symmetry=a1
              MO Center= -6.1D-13, -7.1D-14,  3.0D-01, r^2= 2.9D+00
   Bfn.  Coefficient  Atom+Function         Bfn.  Coefficient  Atom+Function  
  ----- ------------  ---------------      ----- ------------  ---------------
   200      0.159287  10 C  pz              244      0.159287  12 C  pz        

 Vector   23  Occ=1.000000D+00  E=-4.334335D-01  Symmetry=b1
              MO Center=  4.6D-13, -8.8D-15,  3.2D-02, r^2= 2.8D+00
   Bfn.  Coefficient  Atom+Function         Bfn.  Coefficient  Atom+Function  
  ----- ------------  ---------------      ----- ------------  ---------------
    23      0.176469   2 C  py               67     -0.176469   4 C  py        
   287     -0.176469  14 C  py              331      0.176469  16 C  py        

 Vector   24  Occ=1.000000D+00  E=-4.294794D-01  Symmetry=a2
              MO Center= -7.0D-15, -1.3D-14, -4.0D-01, r^2= 3.6D+00
   Bfn.  Coefficient  Atom+Function         Bfn.  Coefficient  Atom+Function  
  ----- ------------  ---------------      ----- ------------  ---------------
   110      0.189802   6 C  px              154     -0.189802   8 C  px        

 Vector   25  Occ=1.000000D+00  E=-4.116600D-01  Symmetry=b2
              MO Center=  1.1D-14, -1.5D-14,  1.9D-01, r^2= 3.6D+00
   Bfn.  Coefficient  Atom+Function         Bfn.  Coefficient  Atom+Function  
  ----- ------------  ---------------      ----- ------------  ---------------
   200     -0.167796  10 C  pz              244      0.167796  12 C  pz        
   194      0.163499  10 C  s               238     -0.163499  12 C  s         

 Vector   26  Occ=1.000000D+00  E=-3.950057D-01  Symmetry=a1
              MO Center= -2.8D-13,  9.3D-14,  3.5D-01, r^2= 3.3D+00
   Bfn.  Coefficient  Atom+Function         Bfn.  Coefficient  Atom+Function  
  ----- ------------  ---------------      ----- ------------  ---------------
   199      0.206196  10 C  py              243     -0.206196  12 C  py        
   196      0.151080  10 C  py              240     -0.151080  12 C  py        

 Vector   27  Occ=1.000000D+00  E=-3.749670D-01  Symmetry=a2
              MO Center= -4.6D-15,  7.7D-15,  4.4D-01, r^2= 2.9D+00
   Bfn.  Coefficient  Atom+Function         Bfn.  Coefficient  Atom+Function  
  ----- ------------  ---------------      ----- ------------  ---------------
   198      0.215148  10 C  px              242     -0.215148  12 C  px        
   195      0.155731  10 C  px              239     -0.155731  12 C  px        
   201      0.152150  10 C  px              245     -0.152150  12 C  px        

 Vector   28  Occ=0.000000D+00  E= 1.299399D-01  Symmetry=a1
              MO Center= -3.9D-13, -5.2D-15, -1.0D+00, r^2= 5.6D+00
   Bfn.  Coefficient  Atom+Function         Bfn.  Coefficient  Atom+Function  
  ----- ------------  ---------------      ----- ------------  ---------------
   106      0.787878   6 C  s               150      0.787878   8 C  s         
   115      0.718472   6 C  pz              159      0.718472   8 C  pz        
   194     -0.655292  10 C  s               238     -0.655292  12 C  s         
     3     -0.542542   1 H  s                47     -0.542542   3 H  s         
   267     -0.542542  13 H  s               311     -0.542542  15 H  s         

 Vector   29  Occ=0.000000D+00  E= 1.324870D-01  Symmetry=b2
              MO Center=  5.0D-16, -4.3D-15, -1.8D-01, r^2= 6.7D+00
   Bfn.  Coefficient  Atom+Function         Bfn.  Coefficient  Atom+Function  
  ----- ------------  ---------------      ----- ------------  ---------------
    18      2.425822   2 C  s                62     -2.425822   4 C  s         
   282      2.425822  14 C  s               326     -2.425822  16 C  s         
   106      1.223792   6 C  s               150     -1.223792   8 C  s         
   115      0.944807   6 C  pz              159     -0.944807   8 C  pz        
   179      0.857488   9 H  s               223     -0.857488  11 H  s         

 Vector   30  Occ=0.000000D+00  E= 1.434918D-01  Symmetry=a1
              MO Center=  8.3D-14,  5.8D-15,  7.6D-01, r^2= 1.1D+01
   Bfn.  Coefficient  Atom+Function         Bfn.  Coefficient  Atom+Function  
  ----- ------------  ---------------      ----- ------------  ---------------
   179      1.189755   9 H  s               223      1.189755  11 H  s         
   194     -1.001986  10 C  s               238     -1.001986  12 C  s         
    18     -0.800306   2 C  s                62     -0.800306   4 C  s         
   282     -0.800306  14 C  s               326     -0.800306  16 C  s         
     3      0.794841   1 H  s                47      0.794841   3 H  s         

 Vector   31  Occ=0.000000D+00  E= 1.647885D-01  Symmetry=b1
              MO Center=  4.0D-15,  1.5D-15,  1.0D-01, r^2= 1.2D+01
   Bfn.  Coefficient  Atom+Function         Bfn.  Coefficient  Atom+Function  
  ----- ------------  ---------------      ----- ------------  ---------------
    18     -1.446016   2 C  s                62     -1.446016   4 C  s         
   282      1.446016  14 C  s               326      1.446016  16 C  s         
     3      1.364025   1 H  s                47      1.364025   3 H  s         
   267     -1.364025  13 H  s               311     -1.364025  15 H  s         
    25     -0.604744   2 C  px               69     -0.604744   4 C  px        

 Vector   32  Occ=0.000000D+00  E= 1.771236D-01  Symmetry=b2
              MO Center= -1.4D-15, -3.4D-15, -8.9D-01, r^2= 1.3D+01
   Bfn.  Coefficient  Atom+Function         Bfn.  Coefficient  Atom+Function  
  ----- ------------  ---------------      ----- ------------  ---------------
    91      1.700516   5 H  s               135     -1.700516   7 H  s         
   106     -1.514958   6 C  s               150      1.514958   8 C  s         
   114      1.156007   6 C  py              158      1.156007   8 C  py        
    18      1.104336   2 C  s                62     -1.104336   4 C  s         
   282      1.104336  14 C  s               326     -1.104336  16 C  s         

 Vector   33  Occ=0.000000D+00  E= 1.792224D-01  Symmetry=a1
              MO Center=  3.5D-13, -8.4D-16,  1.4D-01, r^2= 1.1D+01
   Bfn.  Coefficient  Atom+Function         Bfn.  Coefficient  Atom+Function  
  ----- ------------  ---------------      ----- ------------  ---------------
   106      1.726035   6 C  s               150      1.726035   8 C  s         
   194     -1.664331  10 C  s               238     -1.664331  12 C  s         
    91     -1.169759   5 H  s               135     -1.169759   7 H  s         
   179      1.068408   9 H  s               223      1.068408  11 H  s         
   202      0.473568  10 C  py              246     -0.473568  12 C  py        

 Vector   34  Occ=0.000000D+00  E= 1.979755D-01  Symmetry=a2
              MO Center=  3.8D-15,  2.7D-15,  3.4D-02, r^2= 1.3D+01
   Bfn.  Coefficient  Atom+Function         Bfn.  Coefficient  Atom+Function  
  ----- ------------  ---------------      ----- ------------  ---------------
     3      1.916803   1 H  s                47     -1.916803   3 H  s         
   267     -1.916803  13 H  s               311      1.916803  15 H  s         
    18     -1.874257   2 C  s                62      1.874257   4 C  s         
   282      1.874257  14 C  s               326     -1.874257  16 C  s         
    25     -1.556854   2 C  px               69      1.556854   4 C  px        

 Vector   35  Occ=0.000000D+00  E= 2.051565D-01  Symmetry=a1
              MO Center= -2.2D-16, -7.9D-14,  9.3D-02, r^2= 1.3D+01
   Bfn.  Coefficient  Atom+Function         Bfn.  Coefficient  Atom+Function  
  ----- ------------  ---------------      ----- ------------  ---------------
   179      1.429474   9 H  s               223      1.429474  11 H  s         
    91      1.348003   5 H  s               135      1.348003   7 H  s         
   106     -1.228204   6 C  s               150     -1.228204   8 C  s         
     3     -1.203461   1 H  s                47     -1.203461   3 H  s         
[...]
   19 Stretch                 15    16                       1.08557   -0.01517
   20 Bend                     1     2     4               115.67151   -0.33231
   21 Bend                     1     2     8               121.79196    0.50887
   22 Bend                     1     2    12               124.41979    0.04318
   23 Bend                     2     4     3               115.67151   -0.33231
   24 Bend                     2     4     6               111.30626   -0.02479
   25 Bend                     2     4    10                89.14042   -0.11921
   26 Bend                     2     8     7               126.71819    1.73658
   27 Bend                     2     8    14                91.28317    0.68796
   28 Bend                     2    12    10                90.85958    0.11921
   29 Bend                     2    12    11               123.91616   -0.29857
   30 Bend                     2    12    14                85.52534   -0.25785
   31 Bend                     3     4     6               121.79196    0.50887
   32 Bend                     3     4    10               124.41979    0.04318
   33 Bend                     4     2     8               111.30626   -0.02479
   34 Bend                     4     2    12                89.14042   -0.11921
   35 Bend                     4     6     5               126.71819    1.73658
   36 Bend                     4     6    16                91.28317    0.68796
   37 Bend                     4    10     9               123.91616   -0.29857
   38 Bend                     4    10    12                90.85958    0.11921
   39 Bend                     4    10    16                85.52534   -0.25785
   40 Bend                     5     6    16               126.71819    1.73658
   41 Bend                     6     4    10                87.61820   -0.20253
   42 Bend                     6    16    10                87.61820   -0.20253
   43 Bend                     6    16    14               111.30626   -0.02479
   44 Bend                     6    16    15               121.79196    0.50887
   45 Bend                     7     8    14               126.71819    1.73658
   46 Bend                     8     2    12                87.61820   -0.20253
   47 Bend                     8    14    12                87.61820   -0.20253
   48 Bend                     8    14    13               121.79196    0.50887
   49 Bend                     8    14    16               111.30626   -0.02479
   50 Bend                     9    10    12               129.36397    0.50357
   51 Bend                     9    10    16               123.91616   -0.29857
   52 Bend                    10    12    11               129.36397    0.50357
   53 Bend                    10    12    14                90.85958    0.11921
   54 Bend                    10    16    14                89.14042   -0.11921
   55 Bend                    10    16    15               124.41979    0.04318
   56 Bend                    11    12    14               123.91616   -0.29857
   57 Bend                    12    10    16                90.85958    0.11921
   58 Bend                    12    14    13               124.41979    0.04318
   59 Bend                    12    14    16                89.14042   -0.11921
   60 Bend                    13    14    16               115.67151   -0.33231
   61 Bend                    14    16    15               115.67151   -0.33231
   62 Torsion                  1     2     4     3           0.00000    0.00000
   63 Torsion                  1     2     4     6        -144.57528   -0.40674
   64 Torsion                  1     2     4    10         128.31731   -0.14339
   65 Torsion                  1     2     8     7         -11.72268    4.52214
   66 Torsion                  1     2     8    14        -151.43126   -0.19213
   67 Torsion                  1     2    12    10        -120.99308    0.50123
   68 Torsion                  1     2    12    11          19.76281    1.11959
   69 Torsion                  1     2    12    14         148.21189    0.39405
   70 Torsion                  2     4     6     5         153.79731   -4.44854
   71 Torsion                  2     4     6    16         -66.49410    0.26573
   72 Torsion                  2     4    10     9        -140.75589   -0.61837
   73 Torsion                  2     4    10    12           0.00000    0.00000
   74 Torsion                  2     4    10    16          90.79503    0.10718
   75 Torsion                  2     8    14    12          21.65270    0.05958
   76 Torsion                  2     8    14    13         151.43126    0.19213
   77 Torsion                  2     8    14    16         -66.49410    0.26573
   78 Torsion                  2    12    10     4           0.00000    0.00000
   79 Torsion                  2    12    10     9         137.23136    0.12740
   80 Torsion                  2    12    10    16         -85.53727    0.25481
   81 Torsion                  2    12    14     8         -20.57147    0.12005
   82 Torsion                  2    12    14    13        -148.21189   -0.39405
   83 Torsion                  2    12    14    16          90.79503    0.10718
   84 Torsion                  3     4     2     8         144.57528    0.40674
   85 Torsion                  3     4     2    12        -128.31731    0.14339
   86 Torsion                  3     4     6     5          11.72268   -4.52214
   87 Torsion                  3     4     6    16         151.43126    0.19213
   88 Torsion                  3     4    10     9         -19.76281   -1.11959
   89 Torsion                  3     4    10    12         120.99308   -0.50123
   90 Torsion                  3     4    10    16        -148.21189   -0.39405
   91 Torsion                  4     2     8     7        -153.79731    4.44854
   92 Torsion                  4     2     8    14          66.49410   -0.26573
   93 Torsion                  4     2    12    10           0.00000    0.00000
   94 Torsion                  4     2    12    11         140.75589    0.61837
   95 Torsion                  4     2    12    14         -90.79503   -0.10718
   96 Torsion                  4     6    16    10         -21.65270   -0.05958
   97 Torsion                  4     6    16    14          66.49410   -0.26573
   98 Torsion                  4     6    16    15        -151.43126   -0.19213
   99 Torsion                  4    10    12    11        -137.23136   -0.12740
  100 Torsion                  4    10    12    14          85.53727   -0.25481
  101 Torsion                  4    10    16     6          20.57147   -0.12005
  102 Torsion                  4    10    16    14         -90.79503   -0.10718
  103 Torsion                  4    10    16    15         148.21189    0.39405
  104 Torsion                  5     6     4    10        -118.05588   -4.65469
  105 Torsion                  5     6    16    10         118.05588    4.65469
  106 Torsion                  5     6    16    14        -153.79731    4.44854
  107 Torsion                  5     6    16    15         -11.72268    4.52214
  108 Torsion                  6     4     2     8           0.00000    0.00000
  109 Torsion                  6     4     2    12          87.10741   -0.26335
  110 Torsion                  6     4    10     9         107.87762   -0.60549
  111 Torsion                  6     4    10    12        -111.36650    0.01288
  112 Torsion                  6     4    10    16         -20.57147    0.12005
  113 Torsion                  6    16    10     9        -107.87762    0.60549
  114 Torsion                  6    16    10    12         111.36650   -0.01288
  115 Torsion                  6    16    14     8           0.00000    0.00000
  116 Torsion                  6    16    14    12         -87.10741    0.26335
  117 Torsion                  6    16    14    13         144.57528    0.40674
  118 Torsion                  7     8     2    12         118.05588    4.65469
  119 Torsion                  7     8    14    12        -118.05588   -4.65469
  120 Torsion                  7     8    14    13          11.72268   -4.52214
  121 Torsion                  7     8    14    16         153.79731   -4.44854
  122 Torsion                  8     2     4    10         -87.10741    0.26335
  123 Torsion                  8     2    12    10         111.36650   -0.01288
  124 Torsion                  8     2    12    11        -107.87762    0.60549
  125 Torsion                  8     2    12    14          20.57147   -0.12005
  126 Torsion                  8    14    12    10        -111.36650    0.01288
  127 Torsion                  8    14    12    11         107.87762   -0.60549
  128 Torsion                  8    14    16    10          87.10741   -0.26335
  129 Torsion                  8    14    16    15        -144.57528   -0.40674
  130 Torsion                  9    10    12    11           0.00000    0.00000
  131 Torsion                  9    10    12    14        -137.23136   -0.12740
  132 Torsion                  9    10    16    14         140.75589    0.61837
  133 Torsion                  9    10    16    15          19.76281    1.11959
  134 Torsion                 10     4     2    12           0.00000    0.00000
  135 Torsion                 10     4     6    16          21.65270    0.05958
  136 Torsion                 10    12    14    13         120.99308   -0.50123
  137 Torsion                 10    12    14    16           0.00000    0.00000
  138 Torsion                 10    16    14    12           0.00000    0.00000
  139 Torsion                 10    16    14    13        -128.31731    0.14339
  140 Torsion                 11    12    10    16         137.23136    0.12740
  141 Torsion                 11    12    14    13         -19.76281   -1.11959
  142 Torsion                 11    12    14    16        -140.75589   -0.61837
  143 Torsion                 12     2     8    14         -21.65270   -0.05958
  144 Torsion                 12    10    16    14          -0.00000    0.00000
  145 Torsion                 12    10    16    15        -120.99308    0.50123
  146 Torsion                 12    14    16    15         128.31731   -0.14339
  147 Torsion                 13    14    16    15           0.00000    0.00000
  148 Torsion                 14    12    10    16           0.00000    0.00000

 ==============================================================================
                                internuclear distances
 ------------------------------------------------------------------------------
       center one      |      center two      | atomic units |  angstroms
 ------------------------------------------------------------------------------
    2 C                |   1 H                |     2.05144  |     1.08557
    4 C                |   2 C                |     3.01049  |     1.59308
    4 C                |   3 H                |     2.05144  |     1.08557
    6 C                |   4 C                |     2.83128  |     1.49825
    6 C                |   5 H                |     2.04002  |     1.07953
    8 C                |   2 C                |     2.83128  |     1.49825
    8 C                |   7 H                |     2.04002  |     1.07953
   10 C                |   4 C                |     2.98147  |     1.57773
   10 C                |   9 H                |     2.05163  |     1.08567
   12 C                |   2 C                |     2.98147  |     1.57773
   12 C                |  10 C                |     2.92104  |     1.54575
   12 C                |  11 H                |     2.05163  |     1.08567
   14 C                |   8 C                |     2.83128  |     1.49825
   14 C                |  12 C                |     2.98147  |     1.57773
   14 C                |  13 H                |     2.05144  |     1.08557
   16 C                |   6 C                |     2.83128  |     1.49825
   16 C                |  10 C                |     2.98147  |     1.57773
   16 C                |  14 C                |     3.01049  |     1.59308
   16 C                |  15 H                |     2.05144  |     1.08557
 ------------------------------------------------------------------------------
                         number of included internuclear distances:         19
 ==============================================================================



 ==============================================================================
                                 internuclear angles
 ------------------------------------------------------------------------------
        center 1       |       center 2       |       center 3       |  degrees
 ------------------------------------------------------------------------------
    1 H                |   2 C                |   4 C                |   115.67
    1 H                |   2 C                |   8 C                |   121.79
    1 H                |   2 C                |  12 C                |   124.42
    4 C                |   2 C                |   8 C                |   111.31
    4 C                |   2 C                |  12 C                |    89.14
    8 C                |   2 C                |  12 C                |    87.62
    2 C                |   4 C                |   3 H                |   115.67
    2 C                |   4 C                |   6 C                |   111.31
    2 C                |   4 C                |  10 C                |    89.14
    3 H                |   4 C                |   6 C                |   121.79
    3 H                |   4 C                |  10 C                |   124.42
    6 C                |   4 C                |  10 C                |    87.62
    4 C                |   6 C                |   5 H                |   126.72
    4 C                |   6 C                |  16 C                |    91.28
    5 H                |   6 C                |  16 C                |   126.72
    2 C                |   8 C                |   7 H                |   126.72
    2 C                |   8 C                |  14 C                |    91.28
    7 H                |   8 C                |  14 C                |   126.72
    4 C                |  10 C                |   9 H                |   123.92
    4 C                |  10 C                |  12 C                |    90.86
    4 C                |  10 C                |  16 C                |    85.53
    9 H                |  10 C                |  12 C                |   129.36
    9 H                |  10 C                |  16 C                |   123.92
   12 C                |  10 C                |  16 C                |    90.86
    2 C                |  12 C                |  10 C                |    90.86
    2 C                |  12 C                |  11 H                |   123.92
    2 C                |  12 C                |  14 C                |    85.53
   10 C                |  12 C                |  11 H                |   129.36
   10 C                |  12 C                |  14 C                |    90.86
   11 H                |  12 C                |  14 C                |   123.92
    8 C                |  14 C                |  12 C                |    87.62
    8 C                |  14 C                |  13 H                |   121.79
    8 C                |  14 C                |  16 C                |   111.31
   12 C                |  14 C                |  13 H                |   124.42
   12 C                |  14 C                |  16 C                |    89.14
   13 H                |  14 C                |  16 C                |   115.67
    6 C                |  16 C                |  10 C                |    87.62
    6 C                |  16 C                |  14 C                |   111.31
    6 C                |  16 C                |  15 H                |   121.79
   10 C                |  16 C                |  14 C                |    89.14
   10 C                |  16 C                |  15 H                |   124.42
   14 C                |  16 C                |  15 H                |   115.67
 ------------------------------------------------------------------------------
                            number of included internuclear angles:         42
 ==============================================================================




 Task  times  cpu:    44496.3s     wall:    34028.3s
 Summary of allocated global arrays
-----------------------------------
  No active global arrays



                         GA Statistics for process    0
                         ------------------------------

       create   destroy   get      put      acc     scatter   gather  read&inc
calls: 3.28e+04 3.28e+04 2.22e+08 1.67e+07 1.12e+08 4816        0     1.03e+06 
number of processes/call 1.00e+00 1.00e+00 1.00e+00 0.00e+00 0.00e+00
bytes total:             7.35e+10 3.91e+11 2.45e+10 7.49e+04 0.00e+00 8.21e+06
bytes remote:            0.00e+00 0.00e+00 0.00e+00 0.00e+00 0.00e+00 0.00e+00
Max memory consumed for GA by this process: 209705064 bytes
MA_summarize_allocated_blocks: starting scan ...
MA_summarize_allocated_blocks: scan completed: 0 heap blocks, 0 stack blocks
MA usage statistics:

	allocation statistics:
					      heap	     stack
					      ----	     -----
	current number of blocks	         0	         0
	maximum number of blocks	        25	        48
	current total bytes		         0	         0
	maximum total bytes		    186992	  42969896
	maximum total K-bytes		       187	     42970
	maximum total M-bytes		         1	        43


                                NWChem Input Module
                                -------------------





                                     CITATION
                                     --------
                Please cite the following reference when publishing
                           results obtained with NWChem:

                 M. Valiev, E.J. Bylaska, N. Govind, K. Kowalski,
              T.P. Straatsma, H.J.J. van Dam, D. Wang, J. Nieplocha,
                        E. Apra, T.L. Windus, W.A. de Jong
                 "NWChem: a comprehensive and scalable open-source
                  solution for large scale molecular simulations"
                      Comput. Phys. Commun. 181, 1477 (2010)
                           doi:10.1016/j.cpc.2010.04.018

                                      AUTHORS
                                      -------
          E. Apra, E. J. Bylaska, W. A. de Jong, N. Govind, K. Kowalski,
       T. P. Straatsma, M. Valiev, H. J. J. van Dam, D. Wang, T. L. Windus,
        J. Hammond, J. Autschbach, K. Bhaskaran-Nair, J. Brabec, K. Lopata,
    S. A. Fischer, S. Krishnamoorthy, M. Jacquelin, W. Ma, M. Klemm, O. Villa,
      Y. Chen, V. Anisimov, F. Aquino, S. Hirata, M. T. Hackler, V. Konjkov,
            D. Mejia-Rodriguez, T. Risthaus, M. Malagoli, A. Marenich,
   A. Otero-de-la-Roza, J. Mullin, P. Nichols, R. Peverati, J. Pittner, Y. Zhao,
        P.-D. Fan, A. Fonari, M. J. Williamson, R. J. Harrison, J. R. Rehr,
      M. Dupuis, D. Silverstein, D. M. A. Smith, J. Nieplocha, V. Tipparaju,
    M. Krishnan, B. E. Van Kuiken, A. Vazquez-Mayagoitia, L. Jensen, M. Swart,
      Q. Wu, T. Van Voorhis, A. A. Auer, M. Nooijen, L. D. Crosby, E. Brown,
      G. Cisneros, G. I. Fann, H. Fruchtl, J. Garza, K. Hirao, R. A. Kendall,
      J. A. Nichols, K. Tsemekhman, K. Wolinski, J. Anchell, D. E. Bernholdt,
      P. Borowski, T. Clark, D. Clerc, H. Dachsel, M. J. O. Deegan, K. Dyall,
    D. Elwood, E. Glendening, M. Gutowski, A. C. Hess, J. Jaffe, B. G. Johnson,
     J. Ju, R. Kobayashi, R. Kutteh, Z. Lin, R. Littlefield, X. Long, B. Meng,
      T. Nakajima, S. Niu, L. Pollack, M. Rosing, K. Glaesemann, G. Sandrone,
      M. Stave, H. Taylor, G. Thomas, J. H. van Lenthe, A. T. Wong, Z. Zhang.

 Total times  cpu:    44496.5s     wall:    34028.5s
