 argument  1 = cubane.nw
                                         
                                         


              Northwest Computational Chemistry Package (NWChem) 6.5
              ------------------------------------------------------


                    Environmental Molecular Sciences Laboratory
                       Pacific Northwest National Laboratory
                                Richland, WA 99352

                              Copyright (c) 1994-2014
                       Pacific Northwest National Laboratory
                            Battelle Memorial Institute

             NWChem is an open-source computational chemistry package
                        distributed under the terms of the
                      Educational Community License (ECL) 2.0
             A copy of the license is included with this distribution
                              in the LICENSE.TXT file

                                  ACKNOWLEDGMENT
                                  --------------

            This software and its documentation were developed at the
            EMSL at Pacific Northwest National Laboratory, a multiprogram
            national laboratory, operated for the U.S. Department of Energy
            by Battelle under Contract Number DE-AC05-76RL01830. Support
            for this work was provided by the Department of Energy Office
            of Biological and Environmental Research, Office of Basic
            Energy Sciences, and the Office of Advanced Scientific Computing.


           Job information
           ---------------

    hostname        = kbob-G41MT-S2
    program         = nwchem
    date            = Sun Oct 19 19:22:01 2014

    compiled        = Ср._сент._17_22:58:30_2014
    source          = /opt/Nwchem-6.5.revision26243-src.2014-09-10
    nwchem branch   = 6.5
    nwchem revision = 26243
    ga revision     = 10506
    input           = cubane.nw
    prefix          = cubane.
    data base       = ./cubane.db
    status          = startup
    nproc           =        2
    time left       =     -1s



           Memory information
           ------------------

    heap     =   63211008 doubles =    482.3 Mbytes
    stack    =   63211005 doubles =    482.3 Mbytes
    global   =  126422016 doubles =    964.5 Mbytes (distinct from heap & stack)
    total    =  252844029 doubles =   1929.0 Mbytes
    verify   = yes
    hardfail = no 


           Directory information
           ---------------------

  0 permanent = .
  0 scratch   = .




                                NWChem Input Module
                                -------------------


                    cubane HF/def2-TZVPP geometry optimization
                    ------------------------------------------

 Scaling coordinates for geometry "geometry" by  1.889725989
 (inverse scale =  0.529177249)

 Turning off AUTOSYM since
 SYMMETRY directive was detected!


          ------
          auto-z
          ------


                             Geometry "geometry" -> ""
                             -------------------------

 Output coordinates in angstroms (scale by  1.889725989 to convert to a.u.)

  No.       Tag          Charge          X              Y              Z
 ---- ---------------- ---------- -------------- -------------- --------------
    1 H                    1.0000     1.40138970     1.40138970     1.40138970
    2 H                    1.0000    -1.40138970    -1.40138970     1.40138970
    3 H                    1.0000    -1.40138970     1.40138970    -1.40138970
    4 H                    1.0000     1.40138970    -1.40138970    -1.40138970
    5 H                    1.0000     1.40138970     1.40138970    -1.40138970
    6 H                    1.0000    -1.40138970    -1.40138970    -1.40138970
    7 H                    1.0000     1.40138970    -1.40138970     1.40138970
    8 H                    1.0000    -1.40138970     1.40138970     1.40138970
    9 C                    6.0000     0.77869825     0.77869825     0.77869825
   10 C                    6.0000    -0.77869825    -0.77869825     0.77869825
   11 C                    6.0000    -0.77869825     0.77869825    -0.77869825
   12 C                    6.0000     0.77869825    -0.77869825    -0.77869825
   13 C                    6.0000     0.77869825     0.77869825    -0.77869825
   14 C                    6.0000    -0.77869825    -0.77869825    -0.77869825
   15 C                    6.0000     0.77869825    -0.77869825     0.77869825
   16 C                    6.0000    -0.77869825     0.77869825     0.77869825

      Atomic Mass 
      ----------- 

      H                  1.007825
      C                 12.000000


 Effective nuclear repulsion energy (a.u.)     370.0464137180

            Nuclear Dipole moment (a.u.) 
            ----------------------------
        X                 Y               Z
 ---------------- ---------------- ----------------
     0.0000000000     0.0000000000     0.0000000000

      Symmetry information
      --------------------

 Group name              Oh       
 Group number             44
 Group order              48
 No. of unique centers     2

      Symmetry unique atoms

     1    9



                                Z-matrix (autoz)
                                -------- 

 Units are Angstrom for bonds and degrees for angles

      Type          Name      I     J     K     L     M      Value
      ----------- --------  ----- ----- ----- ----- ----- ----------
    1 Stretch                  1     9                       1.07853
    2 Stretch                  2    10                       1.07853
    3 Stretch                  3    11                       1.07853
    4 Stretch                  4    12                       1.07853
    5 Stretch                  5    13                       1.07853
    6 Stretch                  6    14                       1.07853
    7 Stretch                  7    15                       1.07853
    8 Stretch                  8    16                       1.07853
    9 Stretch                  9    13                       1.55740
   10 Stretch                  9    15                       1.55740
   11 Stretch                  9    16                       1.55740
   12 Stretch                 10    14                       1.55740
   13 Stretch                 10    15                       1.55740
   14 Stretch                 10    16                       1.55740
   15 Stretch                 11    13                       1.55740
   16 Stretch                 11    14                       1.55740
   17 Stretch                 11    16                       1.55740
   18 Stretch                 12    13                       1.55740
   19 Stretch                 12    14                       1.55740
   20 Stretch                 12    15                       1.55740
   21 Bend                     1     9    13               125.26439
   22 Bend                     1     9    15               125.26439
   23 Bend                     1     9    16               125.26439
   24 Bend                     2    10    14               125.26439
   25 Bend                     2    10    15               125.26439
   26 Bend                     2    10    16               125.26439
   27 Bend                     3    11    13               125.26439
   28 Bend                     3    11    14               125.26439
   29 Bend                     3    11    16               125.26439
   30 Bend                     4    12    13               125.26439
   31 Bend                     4    12    14               125.26439
   32 Bend                     4    12    15               125.26439
   33 Bend                     5    13     9               125.26439
   34 Bend                     5    13    11               125.26439
   35 Bend                     5    13    12               125.26439
   36 Bend                     6    14    10               125.26439
   37 Bend                     6    14    11               125.26439
   38 Bend                     6    14    12               125.26439
   39 Bend                     7    15     9               125.26439
   40 Bend                     7    15    10               125.26439
   41 Bend                     7    15    12               125.26439
   42 Bend                     8    16     9               125.26439
   43 Bend                     8    16    10               125.26439
   44 Bend                     8    16    11               125.26439
   45 Bend                     9    13    11                90.00000
   46 Bend                     9    13    12                90.00000
   47 Bend                     9    15    10                90.00000
   48 Bend                     9    15    12                90.00000
   49 Bend                     9    16    10                90.00000
   50 Bend                     9    16    11                90.00000
   51 Bend                    10    14    11                90.00000
   52 Bend                    10    14    12                90.00000
   53 Bend                    10    15    12                90.00000
   54 Bend                    10    16    11                90.00000
   55 Bend                    11    13    12                90.00000
   56 Bend                    11    14    12                90.00000
   57 Bend                    13     9    15                90.00000
   58 Bend                    13     9    16                90.00000
   59 Bend                    13    11    14                90.00000
   60 Bend                    13    11    16                90.00000
   61 Bend                    13    12    14                90.00000
   62 Bend                    13    12    15                90.00000
   63 Bend                    14    10    15                90.00000
   64 Bend                    14    10    16                90.00000
   65 Bend                    14    11    16                90.00000
   66 Bend                    14    12    15                90.00000
   67 Bend                    15     9    16                90.00000
   68 Bend                    15    10    16                90.00000
   69 Torsion                  1     9    13     5           0.00000
   70 Torsion                  1     9    13    11        -135.00000
   71 Torsion                  1     9    13    12         135.00000
   72 Torsion                  1     9    15     7           0.00000
   73 Torsion                  1     9    15    10         135.00000
   74 Torsion                  1     9    15    12        -135.00000
   75 Torsion                  1     9    16     8           0.00000
   76 Torsion                  1     9    16    10        -135.00000
   77 Torsion                  1     9    16    11         135.00000
   78 Torsion                  2    10    14     6           0.00000
   79 Torsion                  2    10    14    11         135.00000
   80 Torsion                  2    10    14    12        -135.00000
   81 Torsion                  2    10    15     7           0.00000
   82 Torsion                  2    10    15     9        -135.00000
   83 Torsion                  2    10    15    12         135.00000
   84 Torsion                  2    10    16     8           0.00000
   85 Torsion                  2    10    16     9         135.00000
   86 Torsion                  2    10    16    11        -135.00000
   87 Torsion                  3    11    13     5           0.00000
   88 Torsion                  3    11    13     9         135.00000
   89 Torsion                  3    11    13    12        -135.00000
   90 Torsion                  3    11    14     6           0.00000
   91 Torsion                  3    11    14    10        -135.00000
   92 Torsion                  3    11    14    12         135.00000
   93 Torsion                  3    11    16     8           0.00000
   94 Torsion                  3    11    16     9        -135.00000
   95 Torsion                  3    11    16    10         135.00000
   96 Torsion                  4    12    13     5           0.00000
   97 Torsion                  4    12    13     9        -135.00000
   98 Torsion                  4    12    13    11         135.00000
   99 Torsion                  4    12    14     6           0.00000
  100 Torsion                  4    12    14    10         135.00000
  101 Torsion                  4    12    14    11        -135.00000
  102 Torsion                  4    12    15     7           0.00000
  103 Torsion                  4    12    15     9         135.00000
  104 Torsion                  4    12    15    10        -135.00000
  105 Torsion                  5    13     9    15        -135.00000
  106 Torsion                  5    13     9    16         135.00000
  107 Torsion                  5    13    11    14         135.00000
  108 Torsion                  5    13    11    16        -135.00000
  109 Torsion                  5    13    12    14        -135.00000
  110 Torsion                  5    13    12    15         135.00000
  111 Torsion                  6    14    10    15         135.00000
  112 Torsion                  6    14    10    16        -135.00000
  113 Torsion                  6    14    11    13        -135.00000
  114 Torsion                  6    14    11    16         135.00000
  115 Torsion                  6    14    12    13         135.00000
  116 Torsion                  6    14    12    15        -135.00000
  117 Torsion                  7    15     9    13         135.00000
  118 Torsion                  7    15     9    16        -135.00000
  119 Torsion                  7    15    10    14        -135.00000
  120 Torsion                  7    15    10    16         135.00000
  121 Torsion                  7    15    12    13        -135.00000
  122 Torsion                  7    15    12    14         135.00000
  123 Torsion                  8    16     9    13        -135.00000
  124 Torsion                  8    16     9    15         135.00000
  125 Torsion                  8    16    10    14         135.00000
  126 Torsion                  8    16    10    15        -135.00000
  127 Torsion                  8    16    11    13         135.00000
  128 Torsion                  8    16    11    14        -135.00000
  129 Torsion                  9    13    11    14         -90.00000
  130 Torsion                  9    13    11    16           0.00000
  131 Torsion                  9    13    12    14          90.00000
  132 Torsion                  9    13    12    15           0.00000
  133 Torsion                  9    15    10    14          90.00000
  134 Torsion                  9    15    10    16           0.00000
  135 Torsion                  9    15    12    13           0.00000
  136 Torsion                  9    15    12    14         -90.00000
  137 Torsion                  9    16    10    14         -90.00000
  138 Torsion                  9    16    10    15           0.00000
  139 Torsion                  9    16    11    13           0.00000
  140 Torsion                  9    16    11    14          90.00000
  141 Torsion                 10    14    11    13          90.00000
  142 Torsion                 10    14    11    16           0.00000
  143 Torsion                 10    14    12    13         -90.00000
  144 Torsion                 10    14    12    15           0.00000
  145 Torsion                 10    15     9    13         -90.00000
  146 Torsion                 10    15     9    16           0.00000
  147 Torsion                 10    15    12    13          90.00000
  148 Torsion                 10    15    12    14           0.00000
  149 Torsion                 10    16     9    13          90.00000
  150 Torsion                 10    16     9    15           0.00000
  151 Torsion                 10    16    11    13         -90.00000
  152 Torsion                 10    16    11    14           0.00000
  153 Torsion                 11    13     9    15          90.00000
  154 Torsion                 11    13     9    16           0.00000
  155 Torsion                 11    13    12    14           0.00000
  156 Torsion                 11    13    12    15         -90.00000
  157 Torsion                 11    14    10    15         -90.00000
  158 Torsion                 11    14    10    16           0.00000
  159 Torsion                 11    14    12    13           0.00000
  160 Torsion                 11    14    12    15          90.00000
  161 Torsion                 11    16     9    13           0.00000
  162 Torsion                 11    16     9    15         -90.00000
  163 Torsion                 11    16    10    14           0.00000
  164 Torsion                 11    16    10    15          90.00000
  165 Torsion                 12    13     9    15           0.00000
  166 Torsion                 12    13     9    16         -90.00000
  167 Torsion                 12    13    11    14           0.00000
  168 Torsion                 12    13    11    16          90.00000
  169 Torsion                 12    14    10    15           0.00000
  170 Torsion                 12    14    10    16          90.00000
  171 Torsion                 12    14    11    13           0.00000
  172 Torsion                 12    14    11    16         -90.00000
  173 Torsion                 12    15     9    13           0.00000
  174 Torsion                 12    15     9    16          90.00000
  175 Torsion                 12    15    10    14           0.00000
  176 Torsion                 12    15    10    16         -90.00000


            XYZ format geometry
            -------------------
    16
 geometry
 H                     1.40138970     1.40138970     1.40138970
 H                    -1.40138970    -1.40138970     1.40138970
 H                    -1.40138970     1.40138970    -1.40138970
 H                     1.40138970    -1.40138970    -1.40138970
 H                     1.40138970     1.40138970    -1.40138970
 H                    -1.40138970    -1.40138970    -1.40138970
 H                     1.40138970    -1.40138970     1.40138970
 H                    -1.40138970     1.40138970     1.40138970
 C                     0.77869825     0.77869825     0.77869825
 C                    -0.77869825    -0.77869825     0.77869825
 C                    -0.77869825     0.77869825    -0.77869825
 C                     0.77869825    -0.77869825    -0.77869825
 C                     0.77869825     0.77869825    -0.77869825
 C                    -0.77869825    -0.77869825    -0.77869825
 C                     0.77869825    -0.77869825     0.77869825
 C                    -0.77869825     0.77869825     0.77869825

 ==============================================================================
                                internuclear distances
 ------------------------------------------------------------------------------
       center one      |      center two      | atomic units |  angstroms
 ------------------------------------------------------------------------------
    9 C                |   1 H                |     2.03813  |     1.07853
   10 C                |   2 H                |     2.03813  |     1.07853
   11 C                |   3 H                |     2.03813  |     1.07853
   12 C                |   4 H                |     2.03813  |     1.07853
   13 C                |   5 H                |     2.03813  |     1.07853
   13 C                |   9 C                |     2.94305  |     1.55740
   13 C                |  11 C                |     2.94305  |     1.55740
   13 C                |  12 C                |     2.94305  |     1.55740
   14 C                |   6 H                |     2.03813  |     1.07853
   14 C                |  10 C                |     2.94305  |     1.55740
   14 C                |  11 C                |     2.94305  |     1.55740
   14 C                |  12 C                |     2.94305  |     1.55740
   15 C                |   7 H                |     2.03813  |     1.07853
   15 C                |   9 C                |     2.94305  |     1.55740
   15 C                |  10 C                |     2.94305  |     1.55740
   15 C                |  12 C                |     2.94305  |     1.55740
   16 C                |   8 H                |     2.03813  |     1.07853
   16 C                |   9 C                |     2.94305  |     1.55740
   16 C                |  10 C                |     2.94305  |     1.55740
   16 C                |  11 C                |     2.94305  |     1.55740
 ------------------------------------------------------------------------------
                         number of included internuclear distances:         20
 ==============================================================================



 ==============================================================================
                                 internuclear angles
 ------------------------------------------------------------------------------
        center 1       |       center 2       |       center 3       |  degrees
 ------------------------------------------------------------------------------
    1 H                |   9 C                |  13 C                |   125.26
    1 H                |   9 C                |  15 C                |   125.26
    1 H                |   9 C                |  16 C                |   125.26
   13 C                |   9 C                |  15 C                |    90.00
   13 C                |   9 C                |  16 C                |    90.00
   15 C                |   9 C                |  16 C                |    90.00
    2 H                |  10 C                |  14 C                |   125.26
    2 H                |  10 C                |  15 C                |   125.26
    2 H                |  10 C                |  16 C                |   125.26
   14 C                |  10 C                |  15 C                |    90.00
   14 C                |  10 C                |  16 C                |    90.00
   15 C                |  10 C                |  16 C                |    90.00
    3 H                |  11 C                |  13 C                |   125.26
    3 H                |  11 C                |  14 C                |   125.26
    3 H                |  11 C                |  16 C                |   125.26
   13 C                |  11 C                |  14 C                |    90.00
   13 C                |  11 C                |  16 C                |    90.00
   14 C                |  11 C                |  16 C                |    90.00
    4 H                |  12 C                |  13 C                |   125.26
    4 H                |  12 C                |  14 C                |   125.26
    4 H                |  12 C                |  15 C                |   125.26
   13 C                |  12 C                |  14 C                |    90.00
   13 C                |  12 C                |  15 C                |    90.00
   14 C                |  12 C                |  15 C                |    90.00
    5 H                |  13 C                |   9 C                |   125.26
    5 H                |  13 C                |  11 C                |   125.26
    5 H                |  13 C                |  12 C                |   125.26
    9 C                |  13 C                |  11 C                |    90.00
    9 C                |  13 C                |  12 C                |    90.00
   11 C                |  13 C                |  12 C                |    90.00
    6 H                |  14 C                |  10 C                |   125.26
    6 H                |  14 C                |  11 C                |   125.26
    6 H                |  14 C                |  12 C                |   125.26
   10 C                |  14 C                |  11 C                |    90.00
   10 C                |  14 C                |  12 C                |    90.00
   11 C                |  14 C                |  12 C                |    90.00
    7 H                |  15 C                |   9 C                |   125.26
    7 H                |  15 C                |  10 C                |   125.26
    7 H                |  15 C                |  12 C                |   125.26
    9 C                |  15 C                |  10 C                |    90.00
    9 C                |  15 C                |  12 C                |    90.00
   10 C                |  15 C                |  12 C                |    90.00
    8 H                |  16 C                |   9 C                |   125.26
    8 H                |  16 C                |  10 C                |   125.26
    8 H                |  16 C                |  11 C                |   125.26
    9 C                |  16 C                |  10 C                |    90.00
    9 C                |  16 C                |  11 C                |    90.00
   10 C                |  16 C                |  11 C                |    90.00
 ------------------------------------------------------------------------------
                            number of included internuclear angles:         48
 ==============================================================================



  library name resolved from: environment
  library file name is: </opt/Nwchem-6.5.revision26243-src.2014-09-10/src/basis/libraries/>
  
                      Basis "ao basis" -> "" (spherical)
                      -----
  H (Hydrogen)
  ------------
            Exponent  Coefficients 
       -------------- ---------------------------------------------------------
  1 S  3.40613410E+01  0.006025
  1 S  5.12357460E+00  0.045021
  1 S  1.16466260E+00  0.201897

  2 S  3.27230410E-01  1.000000

  3 S  1.03072410E-01  1.000000

  4 P  1.40700000E+00  1.000000

  5 P  3.88000000E-01  1.000000

  6 D  1.05700000E+00  1.000000

  C (Carbon)
  ----------
            Exponent  Coefficients 
       -------------- ---------------------------------------------------------
  1 S  1.35753497E+04  0.000222
  1 S  2.03523337E+03  0.001723
  1 S  4.63225624E+02  0.008926
  1 S  1.31200196E+02  0.035728
  1 S  4.28530159E+01  0.110763
  1 S  1.55841858E+01  0.242956

  2 S  6.20671385E+00  0.414403
  2 S  2.57648965E+00  0.237450

  3 S  5.76963394E-01  1.000000

  4 S  2.29728314E-01  1.000000

  5 S  9.51644400E-02  1.000000

  6 P  3.46972322E+01  0.005333
  6 P  7.95826228E+00  0.035864
  6 P  2.37808269E+00  0.142159
  6 P  8.14332082E-01  0.342705

  7 P  2.88875473E-01  1.000000

  8 P  1.00568237E-01  1.000000

  9 D  1.09700000E+00  1.000000

 10 D  3.18000000E-01  1.000000

 11 F  7.61000000E-01  1.000000



 Summary of "ao basis" -> "" (spherical)
 ------------------------------------------------------------------------------
       Tag                 Description            Shells   Functions and Types
 ---------------- ------------------------------  ------  ---------------------
 H                         def2-TZVPP                6       14   3s2p1d
 C                         def2-TZVPP               11       31   5s3p2d1f




                           NWChem Geometry Optimization
                           ----------------------------




                    cubane HF/def2-TZVPP geometry optimization


 maximum gradient threshold         (gmax) =   0.000450
 rms gradient threshold             (grms) =   0.000300
 maximum cartesian step threshold   (xmax) =   0.001800
 rms cartesian step threshold       (xrms) =   0.001200
 fixed trust radius                (trust) =   0.300000
 maximum step size to saddle      (sadstp) =   0.100000
 energy precision                  (eprec) =   1.0D-07
 maximum number of steps          (nptopt) =   20
 initial hessian option           (inhess) =    0
 line search option               (linopt) =    1
 hessian update option            (modupd) =    1
 saddle point option              (modsad) =    0
 initial eigen-mode to follow     (moddir) =    0
 initial variable to follow       (vardir) =    0
 follow first negative mode     (firstneg) =    T
 apply conjugacy                    (opcg) =    F
 source of zmatrix                         =   autoz   


          -------------------
          Energy Minimization
          -------------------


 Names of Z-matrix variables 
    1              2              3              4              5         
    6              7              8              9             10         
   11             12             13             14             15         
   16             17             18             19             20         
   21             22             23             24             25         
   26             27             28             29             30         
   31             32             33             34             35         
   36             37             38             39             40         
   41             42             43             44             45         
   46             47             48             49             50         
   51             52             53             54             55         
   56             57             58             59             60         
   61             62             63             64             65         
   66             67             68             69             70         
   71             72             73             74             75         
   76             77             78             79             80         
   81             82             83             84             85         
   86             87             88             89             90         
   91             92             93             94             95         
   96             97             98             99            100         
  101            102            103            104            105         
  106            107            108            109            110         
  111            112            113            114            115         
  116            117            118            119            120         
  121            122            123            124            125         
  126            127            128            129            130         
  131            132            133            134            135         
  136            137            138            139            140         
  141            142            143            144            145         
  146            147            148            149            150         
  151            152            153            154            155         
  156            157            158            159            160         
  161            162            163            164            165         
  166            167            168            169            170         
  171            172            173            174            175         
  176         

 Variables with the same non-blank name are constrained to be equal


 Using diagonal initial Hessian 
 Scaling for Hessian diagonals: bonds = 1.00  angles = 0.25  torsions = 0.10

          --------
          Step   0
          --------


                         Geometry "geometry" -> "geometry"
                         ---------------------------------

 Output coordinates in angstroms (scale by  1.889725989 to convert to a.u.)

  No.       Tag          Charge          X              Y              Z
 ---- ---------------- ---------- -------------- -------------- --------------
    1 H                    1.0000     1.40138970     1.40138970     1.40138970
    2 H                    1.0000    -1.40138970    -1.40138970     1.40138970
    3 H                    1.0000    -1.40138970     1.40138970    -1.40138970
    4 H                    1.0000     1.40138970    -1.40138970    -1.40138970
    5 H                    1.0000     1.40138970     1.40138970    -1.40138970
    6 H                    1.0000    -1.40138970    -1.40138970    -1.40138970
    7 H                    1.0000     1.40138970    -1.40138970     1.40138970
    8 H                    1.0000    -1.40138970     1.40138970     1.40138970
    9 C                    6.0000     0.77869825     0.77869825     0.77869825
   10 C                    6.0000    -0.77869825    -0.77869825     0.77869825
   11 C                    6.0000    -0.77869825     0.77869825    -0.77869825
   12 C                    6.0000     0.77869825    -0.77869825    -0.77869825
   13 C                    6.0000     0.77869825     0.77869825    -0.77869825
   14 C                    6.0000    -0.77869825    -0.77869825    -0.77869825
   15 C                    6.0000     0.77869825    -0.77869825     0.77869825
   16 C                    6.0000    -0.77869825     0.77869825     0.77869825

      Atomic Mass 
      ----------- 

      H                  1.007825
      C                 12.000000


 Effective nuclear repulsion energy (a.u.)     370.0464137180

            Nuclear Dipole moment (a.u.) 
            ----------------------------
        X                 Y               Z
 ---------------- ---------------- ----------------
     0.0000000000     0.0000000000     0.0000000000

      Symmetry information
      --------------------

 Group name              Oh       
 Group number             44
 Group order              48
 No. of unique centers     2

      Symmetry unique atoms

     1    9

                                 NWChem SCF Module
                                 -----------------


                    cubane HF/def2-TZVPP geometry optimization



  ao basis        = "ao basis"
  functions       =   360
  atoms           =    16
  closed shells   =    28
  open shells     =     0
  charge          =   0.00
  wavefunction    = RHF 
  input vectors   = atomic
  output vectors  = ./cubane.movecs
  use symmetry    = T
  symmetry adapt  = T


 Summary of "ao basis" -> "ao basis" (spherical)
 ------------------------------------------------------------------------------
       Tag                 Description            Shells   Functions and Types
 ---------------- ------------------------------  ------  ---------------------
 H                         def2-TZVPP                6       14   3s2p1d
 C                         def2-TZVPP               11       31   5s3p2d1f


      Symmetry analysis of basis
      --------------------------

        a1g        18
        a1u         1
        a2g         1
        a2u        18
        eg         26
        eu         26
        t1g        42
        t1u        93
        t2g        93
        t2u        42


 Forming initial guess at       2.9s


 !! The overlap matrix has   1 vectors deemed linearly dependent with
    eigenvalues:
 6.64D-07


      Superposition of Atomic Density Guess
      -------------------------------------

 Sum of atomic energies:        -305.36909921

      Non-variational initial energy
      ------------------------------

 Total energy =    -312.174459
 1-e energy   =   -1142.730021
 2-e energy   =     460.509148
 HOMO         =      -0.297970
 LUMO         =       0.037368


      Symmetry analysis of molecular orbitals - initial
      -------------------------------------------------

  Numbering of irreducible representations: 

     1 a1g         2 a1u         3 a2g         4 a2u         5 eg      
     6 eu          7 t1g         8 t1u         9 t2g        10 t2u     

  Orbital symmetries:

     1 a1g         2 t1u         3 t1u         4 t1u         5 t2g     
     6 t2g         7 t2g         8 a2u         9 a1g        10 t1u     
    11 t1u        12 t1u        13 t2g        14 t2g        15 t2g     
    16 a1g        17 a2u        18 eg         19 eg         20 t1u     
    21 t1u        22 t1u        23 t2u        24 t2u        25 t2u     
    26 t2g        27 t2g        28 t2g        29 t1u        30 t1u     
    31 t1u        32 a1g        33 t2g        34 t2g        35 t2g     
    36 t1u        37 t1u        38 t1u     


 Starting SCF solution at      41.6s



 ----------------------------------------------
         Quadratically convergent ROHF

 Convergence threshold     :          1.000E-04
 Maximum no. of iterations :           30
 Final Fock-matrix accuracy:          1.000E-10
 ----------------------------------------------


 Integral file          = ./cubane.aoints.0
 Record size in doubles =  65536        No. of integs per rec  =  32766
 Max. records in memory =    879        Max. records in file   =  22349
 No. of bits per label  =     16        No. of bits per value  =     64


 #quartets = 1.403D+06 #integrals = 6.300D+07 #direct =  0.0% #cached =100.0%


File balance: exchanges=     1  moved=   380  time=   4.5


              iter       energy          gnorm     gmax       time
             ----- ------------------- --------- --------- --------
                 1     -307.4060717466  1.00D+00  2.28D-01     42.7
                 2     -307.4851508753  3.29D-01  5.00D-02     51.8
                 3     -307.4940663702  9.59D-03  1.64D-03     65.5
                 4     -307.4940771620  1.72D-05  3.98D-06     80.8


       Final RHF  results 
       ------------------ 

         Total SCF energy =   -307.494077162014
      One-electron energy =  -1149.431308348298
      Two-electron energy =    471.890817468255
 Nuclear repulsion energy =    370.046413718028

        Time for solution =     58.4s



       Symmetry analysis of molecular orbitals - final
       -----------------------------------------------

  Numbering of irreducible representations: 

     1 a1g         2 a1u         3 a2g         4 a2u         5 eg      
     6 eu          7 t1g         8 t1u         9 t2g        10 t2u     

  Orbital symmetries:

     1 a1g         2 t1u         3 t1u         4 t1u         5 t2g     
     6 t2g         7 t2g         8 a2u         9 a1g        10 t1u     
    11 t1u        12 t1u        13 t2g        14 t2g        15 t2g     
    16 a1g        17 a2u        18 eg         19 eg         20 t1u     
    21 t1u        22 t1u        23 t2u        24 t2u        25 t2u     
    26 t2g        27 t2g        28 t2g        29 a1g        30 t1u     
    31 t1u        32 t1u        33 t2g        34 t2g        35 t2g     
    36 t1u        37 t1u        38 t1u     

             Final eigenvalues
             -----------------

              1      
    1  -11.2162
    2  -11.2157
    3  -11.2157
    4  -11.2157
    5  -11.2152
    6  -11.2152
    7  -11.2152
    8  -11.2147
    9   -1.2517
   10   -0.9821
   11   -0.9821
   12   -0.9821
   13   -0.7690
   14   -0.7690
   15   -0.7690
   16   -0.7147
   17   -0.6418
   18   -0.5837
   19   -0.5837
   20   -0.5827
   21   -0.5827
   22   -0.5827
   23   -0.3917
   24   -0.3917
   25   -0.3917
   26   -0.3830
   27   -0.3830
   28   -0.3830
   29    0.1581
   30    0.1633
   31    0.1633
   32    0.1633
   33    0.2024
   34    0.2024
   35    0.2024
   36    0.2229
   37    0.2229
   38    0.2229

                       ROHF Final Molecular Orbital Analysis
                       -------------------------------------

 Vector    9  Occ=2.000000D+00  E=-1.251714D+00  Symmetry=a1g
              MO Center=  1.4D-17, -4.2D-17, -1.4D-17, r^2= 1.6D+00
   Bfn.  Coefficient  Atom+Function         Bfn.  Coefficient  Atom+Function  
  ----- ------------  ---------------      ----- ------------  ---------------
   116      0.136104   9 C  s               147      0.136104  10 C  s         
   178      0.136104  11 C  s               209      0.136104  12 C  s         
   240      0.136104  13 C  s               271      0.136104  14 C  s         
   302      0.136104  15 C  s               333      0.136104  16 C  s         

 Vector   10  Occ=2.000000D+00  E=-9.820932D-01  Symmetry=t1u
              MO Center=  5.9D-17, -1.4D-17,  1.1D-16, r^2= 2.6D+00
   Bfn.  Coefficient  Atom+Function         Bfn.  Coefficient  Atom+Function  
  ----- ------------  ---------------      ----- ------------  ---------------
   209     -0.210933  12 C  s               333      0.210933  16 C  s         
   178      0.195582  11 C  s               302     -0.195582  15 C  s         

 Vector   11  Occ=2.000000D+00  E=-9.820932D-01  Symmetry=t1u
              MO Center=  1.2D-15, -8.0D-15,  6.4D-15, r^2= 2.6D+00
   Bfn.  Coefficient  Atom+Function         Bfn.  Coefficient  Atom+Function  
  ----- ------------  ---------------      ----- ------------  ---------------
   116      0.248546   9 C  s               271     -0.248546  14 C  s         
   115      0.170291   9 C  s               178     -0.170394  11 C  s         
   270     -0.170291  14 C  s               302      0.170394  15 C  s         

 Vector   12  Occ=2.000000D+00  E=-9.820932D-01  Symmetry=t1u
              MO Center=  7.2D-15,  5.0D-15, -7.6D-15, r^2= 2.6D+00
   Bfn.  Coefficient  Atom+Function         Bfn.  Coefficient  Atom+Function  
  ----- ------------  ---------------      ----- ------------  ---------------
   147      0.255701  10 C  s               240     -0.255701  13 C  s         
   146      0.175194  10 C  s               239     -0.175194  13 C  s         
   209     -0.153170  12 C  s               333      0.153170  16 C  s         

 Vector   13  Occ=2.000000D+00  E=-7.689851D-01  Symmetry=t2g
              MO Center= -3.8D-14,  3.0D-14,  2.7D-14, r^2= 4.0D+00
   Bfn.  Coefficient  Atom+Function         Bfn.  Coefficient  Atom+Function  
  ----- ------------  ---------------      ----- ------------  ---------------
   209      0.251361  12 C  s               333      0.251361  16 C  s         
   208      0.160779  12 C  s               332      0.160779  16 C  s         

 Vector   14  Occ=2.000000D+00  E=-7.689851D-01  Symmetry=t2g
              MO Center= -5.0D-14,  8.5D-15, -4.6D-14, r^2= 4.0D+00
   Bfn.  Coefficient  Atom+Function         Bfn.  Coefficient  Atom+Function  
  ----- ------------  ---------------      ----- ------------  ---------------
   178      0.231732  11 C  s               302      0.231732  15 C  s         
   116     -0.179493   9 C  s               271     -0.179493  14 C  s         

 Vector   15  Occ=2.000000D+00  E=-7.689851D-01  Symmetry=t2g
              MO Center=  2.0D-14,  2.2D-14, -5.1D-15, r^2= 4.0D+00
   Bfn.  Coefficient  Atom+Function         Bfn.  Coefficient  Atom+Function  
  ----- ------------  ---------------      ----- ------------  ---------------
   147      0.249610  10 C  s               240      0.249610  13 C  s         
   146      0.159659  10 C  s               239      0.159659  13 C  s         

 Vector   16  Occ=2.000000D+00  E=-7.147158D-01  Symmetry=a1g
              MO Center=  1.4D-16,  1.4D-17,  2.8D-16, r^2= 4.3D+00
   Bfn.  Coefficient  Atom+Function         Bfn.  Coefficient  Atom+Function  
  ----- ------------  ---------------      ----- ------------  ---------------
     2      0.090805   1 H  s                16      0.090805   2 H  s         
    30      0.090805   3 H  s                44      0.090805   4 H  s         
    58      0.090805   5 H  s                72      0.090805   6 H  s         
    86      0.090805   7 H  s               100      0.090805   8 H  s         

 Vector   17  Occ=2.000000D+00  E=-6.418010D-01  Symmetry=a2u
              MO Center=  4.5D-14, -2.3D-14,  6.1D-15, r^2= 5.0D+00
   Bfn.  Coefficient  Atom+Function         Bfn.  Coefficient  Atom+Function  
  ----- ------------  ---------------      ----- ------------  ---------------
   116      0.135807   9 C  s               147      0.135807  10 C  s         
   178      0.135807  11 C  s               209      0.135807  12 C  s         
   240     -0.135807  13 C  s               271     -0.135807  14 C  s         
   302     -0.135807  15 C  s               333     -0.135807  16 C  s         

 Vector   18  Occ=2.000000D+00  E=-5.837300D-01  Symmetry=eg
              MO Center=  2.8D-17,  5.6D-17,  0.0D+00, r^2= 2.5D+00
   Bfn.  Coefficient  Atom+Function         Bfn.  Coefficient  Atom+Function  
  ----- ------------  ---------------      ----- ------------  ---------------
   118      0.112807   9 C  px              149     -0.112807  10 C  px        
   180     -0.112807  11 C  px              211      0.112807  12 C  px        
   242      0.112807  13 C  px              273     -0.112807  14 C  px        
   304      0.112807  15 C  px              335     -0.112807  16 C  px        

 Vector   19  Occ=2.000000D+00  E=-5.837300D-01  Symmetry=eg
              MO Center= -1.2D-16, -1.7D-16, -2.5D-16, r^2= 2.5D+00
   Bfn.  Coefficient  Atom+Function         Bfn.  Coefficient  Atom+Function  
  ----- ------------  ---------------      ----- ------------  ---------------
   120      0.112359   9 C  pz              151      0.112359  10 C  pz        
   182     -0.112359  11 C  pz              213     -0.112359  12 C  pz        
   244     -0.112359  13 C  pz              275     -0.112359  14 C  pz        
   306      0.112359  15 C  pz              337      0.112359  16 C  pz        

 Vector   20  Occ=2.000000D+00  E=-5.827276D-01  Symmetry=t1u
              MO Center=  1.2D-14, -6.4D-16,  4.4D-15, r^2= 4.1D+00
   Bfn.  Coefficient  Atom+Function         Bfn.  Coefficient  Atom+Function  
  ----- ------------  ---------------      ----- ------------  ---------------
    30      0.163809   3 H  s                86     -0.163809   7 H  s         

 Vector   21  Occ=2.000000D+00  E=-5.827276D-01  Symmetry=t1u
              MO Center=  2.4D-15,  1.8D-15,  2.2D-15, r^2= 4.1D+00
   Bfn.  Coefficient  Atom+Function         Bfn.  Coefficient  Atom+Function  
  ----- ------------  ---------------      ----- ------------  ---------------
     2      0.147788   1 H  s                72     -0.147788   6 H  s         

 Vector   22  Occ=2.000000D+00  E=-5.827276D-01  Symmetry=t1u
              MO Center= -4.1D-15,  1.1D-15,  7.7D-15, r^2= 4.1D+00
   Bfn.  Coefficient  Atom+Function         Bfn.  Coefficient  Atom+Function  
  ----- ------------  ---------------      ----- ------------  ---------------
    44      0.146329   4 H  s               100     -0.146329   8 H  s         

 Vector   23  Occ=2.000000D+00  E=-3.917209D-01  Symmetry=t2u
              MO Center= -3.9D-16, -1.3D-15,  1.9D-16, r^2= 2.8D+00
   Bfn.  Coefficient  Atom+Function         Bfn.  Coefficient  Atom+Function  
  ----- ------------  ---------------      ----- ------------  ---------------
   150      0.136985  10 C  py              212     -0.136985  12 C  py        
   243      0.136985  13 C  py              336     -0.136985  16 C  py        
   153      0.130864  10 C  py              215     -0.130864  12 C  py        
   246      0.130864  13 C  py              339     -0.130864  16 C  py        
   118      0.126456   9 C  px              211     -0.126456  12 C  px        

 Vector   24  Occ=2.000000D+00  E=-3.917209D-01  Symmetry=t2u
              MO Center= -1.0D-15,  5.6D-16, -2.2D-15, r^2= 2.8D+00
   Bfn.  Coefficient  Atom+Function         Bfn.  Coefficient  Atom+Function  
  ----- ------------  ---------------      ----- ------------  ---------------
   182      0.132962  11 C  pz              213     -0.132962  12 C  pz        
   306      0.132962  15 C  pz              337     -0.132962  16 C  pz        
   185      0.127021  11 C  pz              216     -0.127021  12 C  pz        
   309      0.127021  15 C  pz              340     -0.127021  16 C  pz        
   149      0.123023  10 C  px              180     -0.123023  11 C  px        

 Vector   25  Occ=2.000000D+00  E=-3.917209D-01  Symmetry=t2u
              MO Center=  1.7D-16, -2.8D-17,  0.0D+00, r^2= 2.8D+00
   Bfn.  Coefficient  Atom+Function         Bfn.  Coefficient  Atom+Function  
  ----- ------------  ---------------      ----- ------------  ---------------
   119      0.139182   9 C  py              181     -0.139182  11 C  py        
   274      0.139182  14 C  py              305     -0.139182  15 C  py        
   122      0.132963   9 C  py              184     -0.132963  11 C  py        
   277      0.132963  14 C  py              308     -0.132963  15 C  py        
   120     -0.125308   9 C  pz              151      0.125308  10 C  pz        

 Vector   26  Occ=2.000000D+00  E=-3.829603D-01  Symmetry=t2g
              MO Center=  1.5D-13, -2.0D-13,  1.5D-13, r^2= 3.5D+00
   Bfn.  Coefficient  Atom+Function         Bfn.  Coefficient  Atom+Function  
  ----- ------------  ---------------      ----- ------------  ---------------
   183      0.132496  11 C  px              307     -0.132496  15 C  px        
   180      0.131747  11 C  px              211      0.131201  12 C  px        
   214      0.131347  12 C  px              304     -0.131747  15 C  px        
   335     -0.131201  16 C  px              338     -0.131347  16 C  px        
   118      0.120772   9 C  px              149      0.120226  10 C  px        

 Vector   27  Occ=2.000000D+00  E=-3.829603D-01  Symmetry=t2g
              MO Center= -8.2D-14, -6.5D-14,  1.1D-13, r^2= 3.5D+00
   Bfn.  Coefficient  Atom+Function         Bfn.  Coefficient  Atom+Function  
  ----- ------------  ---------------      ----- ------------  ---------------
   122      0.132905   9 C  py              277     -0.132905  14 C  py        
   119      0.131943   9 C  py              274     -0.131943  14 C  py        
   150      0.130982  10 C  py              153      0.130882  10 C  py        
   243     -0.130982  13 C  py              246     -0.130882  13 C  py        
   212      0.120997  12 C  py              336     -0.120997  16 C  py        

 Vector   28  Occ=2.000000D+00  E=-3.829603D-01  Symmetry=t2g
              MO Center=  7.5D-16,  3.1D-16,  6.9D-17, r^2= 3.5D+00
   Bfn.  Coefficient  Atom+Function         Bfn.  Coefficient  Atom+Function  
  ----- ------------  ---------------      ----- ------------  ---------------
   151      0.148478  10 C  pz              213      0.147945  12 C  pz        
   244     -0.148478  13 C  pz              337     -0.147945  16 C  pz        
   120      0.146977   9 C  pz              182      0.147511  11 C  pz        
   275     -0.146977  14 C  pz              306     -0.147511  15 C  pz        
   154      0.142716  10 C  pz              247     -0.142716  13 C  pz        

 Vector   29  Occ=0.000000D+00  E= 1.581263D-01  Symmetry=a1g
              MO Center=  4.6D-15, -7.4D-15,  2.9D-15, r^2= 1.2D+01
   Bfn.  Coefficient  Atom+Function         Bfn.  Coefficient  Atom+Function  
  ----- ------------  ---------------      ----- ------------  ---------------
     3      1.250832   1 H  s                17      1.250832   2 H  s         
    31      1.250832   3 H  s                45      1.250832   4 H  s         
    59      1.250832   5 H  s                73      1.250832   6 H  s         
    87      1.250832   7 H  s               101      1.250832   8 H  s         
   117     -0.714738   9 C  s               148     -0.714738  10 C  s         

 Vector   30  Occ=0.000000D+00  E= 1.632917D-01  Symmetry=t1u
              MO Center=  8.9D-16, -3.3D-15,  1.6D-15, r^2= 9.1D+00
   Bfn.  Coefficient  Atom+Function         Bfn.  Coefficient  Atom+Function  
  ----- ------------  ---------------      ----- ------------  ---------------
   148      2.720944  10 C  s               241     -2.720944  13 C  s         
   117     -2.286992   9 C  s               272      2.286992  14 C  s         
   179     -1.198350  11 C  s               303      1.198350  15 C  s         
    17     -0.851023   2 H  s                59      0.851023   5 H  s         
   210      0.764398  12 C  s               334     -0.764398  16 C  s         

 Vector   31  Occ=0.000000D+00  E= 1.632917D-01  Symmetry=t1u
              MO Center=  1.8D-13, -4.7D-13,  3.4D-14, r^2= 9.1D+00
   Bfn.  Coefficient  Atom+Function         Bfn.  Coefficient  Atom+Function  
  ----- ------------  ---------------      ----- ------------  ---------------
   179      2.759536  11 C  s               303     -2.759536  15 C  s         
   210     -2.190709  12 C  s               334      2.190709  16 C  s         
   117     -1.303773   9 C  s               272      1.303773  14 C  s         
    31     -0.863094   3 H  s                87      0.863094   7 H  s         
   155      0.739247  10 C  px              248      0.739247  13 C  px        

 Vector   32  Occ=0.000000D+00  E= 1.632917D-01  Symmetry=t1u
              MO Center= -6.9D-15,  7.7D-15,  1.6D-14, r^2= 9.1D+00
   Bfn.  Coefficient  Atom+Function         Bfn.  Coefficient  Atom+Function  
  ----- ------------  ---------------      ----- ------------  ---------------
   210      2.367942  12 C  s               334     -2.367942  16 C  s         
   117     -2.015069   9 C  s               272      2.015069  14 C  s         
   148     -1.745560  10 C  s               241      1.745560  13 C  s         
   179      1.392687  11 C  s               303     -1.392687  15 C  s         
   188      0.757637  11 C  pz              312      0.757637  15 C  pz        

 Vector   33  Occ=0.000000D+00  E= 2.023807D-01  Symmetry=t2g
              MO Center=  2.9D-13, -8.7D-13, -1.9D-12, r^2= 1.4D+01
   Bfn.  Coefficient  Atom+Function         Bfn.  Coefficient  Atom+Function  
  ----- ------------  ---------------      ----- ------------  ---------------
    31      3.206110   3 H  s                45     -3.198798   4 H  s         
    87      3.206110   7 H  s               101     -3.198798   8 H  s         
   187     -2.207896  11 C  py              218     -2.204476  12 C  py        
   311      2.207896  15 C  py              342      2.204476  16 C  py        
   186      1.892598  11 C  px              217      1.889179  12 C  px        

 Vector   34  Occ=0.000000D+00  E= 2.023807D-01  Symmetry=t2g
              MO Center= -2.1D-13, -1.9D-14, -9.5D-13, r^2= 1.4D+01
   Bfn.  Coefficient  Atom+Function         Bfn.  Coefficient  Atom+Function  
  ----- ------------  ---------------      ----- ------------  ---------------
    17      3.670849   2 H  s                59      3.670849   5 H  s         
     3     -2.549180   1 H  s                73     -2.549180   6 H  s         
   155      2.405022  10 C  px              248     -2.405022  13 C  px        
   156      2.098385  10 C  py              249     -2.098385  13 C  py        
   157     -1.909736  10 C  pz              250      1.909736  13 C  pz        

 Vector   35  Occ=0.000000D+00  E= 2.023807D-01  Symmetry=t2g
              MO Center= -1.7D-13,  4.5D-13,  8.8D-15, r^2= 1.4D+01
   Bfn.  Coefficient  Atom+Function         Bfn.  Coefficient  Atom+Function  
  ----- ------------  ---------------      ----- ------------  ---------------
     3      3.051571   1 H  s                73      3.051571   6 H  s         
    31     -2.501097   3 H  s                87     -2.501097   7 H  s         
   126     -2.214088   9 C  pz              281      2.214088  14 C  pz        
    45     -2.074242   4 H  s               101     -2.074242   8 H  s         
   188     -1.956636  11 C  pz              312      1.956636  15 C  pz        

 Vector   36  Occ=0.000000D+00  E= 2.228652D-01  Symmetry=t1u
              MO Center=  6.6D-14, -1.8D-13, -8.8D-13, r^2= 1.1D+01
   Bfn.  Coefficient  Atom+Function         Bfn.  Coefficient  Atom+Function  
  ----- ------------  ---------------      ----- ------------  ---------------
     3      2.172575   1 H  s                73     -2.172575   6 H  s         
    45     -1.865633   4 H  s               101      1.865633   8 H  s         
    17     -1.566828   2 H  s                59      1.566828   5 H  s         
   125     -1.513679   9 C  py              280     -1.513679  14 C  py        
   218     -1.386291  12 C  py              342     -1.386291  16 C  py        

 Vector   37  Occ=0.000000D+00  E= 2.228652D-01  Symmetry=t1u
              MO Center=  7.8D-13, -8.6D-13,  2.7D-12, r^2= 1.1D+01
   Bfn.  Coefficient  Atom+Function         Bfn.  Coefficient  Atom+Function  
  ----- ------------  ---------------      ----- ------------  ---------------
    31      2.351575   3 H  s                87     -2.351575   7 H  s         
     3     -1.894099   1 H  s                73      1.894099   6 H  s         
   186      1.573588  11 C  px              310      1.573588  15 C  px        
    45     -1.457716   4 H  s               101      1.457716   8 H  s         
   124      1.383726   9 C  px              279      1.383726  14 C  px        

 Vector   38  Occ=0.000000D+00  E= 2.228652D-01  Symmetry=t1u
              MO Center= -1.0D-12,  2.2D-13,  2.7D-13, r^2= 1.1D+01
   Bfn.  Coefficient  Atom+Function         Bfn.  Coefficient  Atom+Function  
  ----- ------------  ---------------      ----- ------------  ---------------
    17      2.393067   2 H  s                59     -2.393067   5 H  s         
    45     -1.891210   4 H  s               101      1.891210   8 H  s         
   157     -1.586600  10 C  pz              250     -1.586600  13 C  pz        
    31     -1.437005   3 H  s                87      1.437005   7 H  s         
   219     -1.378319  12 C  pz              343     -1.378319  16 C  pz        

 Vector   39  Occ=0.000000D+00  E= 2.308414D-01  Symmetry=a2u
              MO Center= -3.0D-13,  1.3D-12, -1.6D-13, r^2= 1.5D+01
   Bfn.  Coefficient  Atom+Function         Bfn.  Coefficient  Atom+Function  
  ----- ------------  ---------------      ----- ------------  ---------------
     3      2.553712   1 H  s                17      2.553712   2 H  s         
    31      2.553712   3 H  s                45      2.553712   4 H  s         
    59     -2.553712   5 H  s                73     -2.553712   6 H  s         
    87     -2.553712   7 H  s               101     -2.553712   8 H  s         
   124     -1.300706   9 C  px              125     -1.300706   9 C  py        

 Vector   40  Occ=0.000000D+00  E= 2.960762D-01  Symmetry=eg
              MO Center= -2.7D-15,  1.7D-15, -5.3D-16, r^2= 7.9D+00
   Bfn.  Coefficient  Atom+Function         Bfn.  Coefficient  Atom+Function  
  ----- ------------  ---------------      ----- ------------  ---------------
   125      0.298814   9 C  py              156     -0.298814  10 C  py        
   187      0.298814  11 C  py              218     -0.298814  12 C  py        
   249      0.298814  13 C  py              280     -0.298814  14 C  py        
   311     -0.298814  15 C  py              342      0.298814  16 C  py        
   124     -0.255953   9 C  px              155      0.255953  10 C  px        

 Vector   41  Occ=0.000000D+00  E= 2.960762D-01  Symmetry=eg
              MO Center=  2.9D-16,  2.4D-16, -1.1D-15, r^2= 7.9D+00
   Bfn.  Coefficient  Atom+Function         Bfn.  Coefficient  Atom+Function  
  ----- ------------  ---------------      ----- ------------  ---------------
   126      0.320295   9 C  pz              157      0.320295  10 C  pz        
   188     -0.320295  11 C  pz              219     -0.320295  12 C  pz        
   250     -0.320295  13 C  pz              281     -0.320295  14 C  pz        
   312      0.320295  15 C  pz              343      0.320295  16 C  pz        
   123     -0.208566   9 C  pz              154     -0.208566  10 C  pz        

 Vector   42  Occ=0.000000D+00  E= 3.183174D-01  Symmetry=t2g
              MO Center=  2.0D-13,  3.4D-13,  5.0D-13, r^2= 1.2D+01
   Bfn.  Coefficient  Atom+Function         Bfn.  Coefficient  Atom+Function  
  ----- ------------  ---------------      ----- ------------  ---------------
   117     28.688130   9 C  s               272     28.688130  14 C  s         
   148    -20.504306  10 C  s               241    -20.504306  13 C  s         
   126    -10.018506   9 C  pz              281     10.018506  14 C  pz        
   125     -8.584054   9 C  py              280      8.584054  14 C  py        
   124     -8.461663   9 C  px              157      8.439360  10 C  pz        

 Vector   43  Occ=0.000000D+00  E= 3.183174D-01  Symmetry=t2g
              MO Center=  2.4D-13,  5.4D-13,  3.9D-13, r^2= 1.2D+01
   Bfn.  Coefficient  Atom+Function         Bfn.  Coefficient  Atom+Function  
  ----- ------------  ---------------      ----- ------------  ---------------
   210     25.428276  12 C  s               334     25.428276  16 C  s         
   148    -21.405146  10 C  s               241    -21.405146  13 C  s         
   117    -11.093264   9 C  s               272    -11.093264  14 C  s         
   218      9.174511  12 C  py              342     -9.174511  16 C  py        
   156     -8.398211  10 C  py              249      8.398211  13 C  py        

 Vector   44  Occ=0.000000D+00  E= 3.183174D-01  Symmetry=t2g
              MO Center= -2.3D-13,  7.0D-13, -7.5D-15, r^2= 1.2D+01
   Bfn.  Coefficient  Atom+Function         Bfn.  Coefficient  Atom+Function  
  ----- ------------  ---------------      ----- ------------  ---------------
   179     29.760568  11 C  s               303     29.760568  15 C  s         
   210    -17.322597  12 C  s               334    -17.322597  16 C  s         
   188     10.033226  11 C  pz              312    -10.033226  15 C  pz        
   186      9.268502  11 C  px              310     -9.268502  15 C  px        
   148     -8.930945  10 C  s               241     -8.930945  13 C  s         

 Vector   45  Occ=0.000000D+00  E= 3.374430D-01  Symmetry=t1g
              MO Center= -4.6D-14,  4.6D-14,  9.1D-15, r^2= 6.9D+00
   Bfn.  Coefficient  Atom+Function         Bfn.  Coefficient  Atom+Function  
  ----- ------------  ---------------      ----- ------------  ---------------
   124      1.342525   9 C  px              217     -1.342525  12 C  px        
   279     -1.342525  14 C  px              341      1.342525  16 C  px        
   156      1.269675  10 C  py              218     -1.269675  12 C  py        
   249     -1.269675  13 C  py              342      1.269675  16 C  py        
   125     -1.109791   9 C  py              187      1.109791  11 C  py        

 Vector   46  Occ=0.000000D+00  E= 3.374430D-01  Symmetry=t1g
              MO Center= -9.0D-15, -1.8D-14,  4.6D-14, r^2= 6.9D+00
   Bfn.  Coefficient  Atom+Function         Bfn.  Coefficient  Atom+Function  
  ----- ------------  ---------------      ----- ------------  ---------------
   126      1.661434   9 C  pz              157     -1.661434  10 C  pz        
   250      1.661434  13 C  pz              281     -1.661434  14 C  pz        
   155     -1.135360  10 C  px              186      1.135360  11 C  px        
   248      1.135360  13 C  px              310     -1.135360  15 C  px        
   125     -0.867485   9 C  py              187      0.867485  11 C  py        

 Vector   47  Occ=0.000000D+00  E= 3.374430D-01  Symmetry=t1g
              MO Center=  7.9D-15, -8.4D-15, -1.8D-15, r^2= 6.9D+00
   Bfn.  Coefficient  Atom+Function         Bfn.  Coefficient  Atom+Function  
  ----- ------------  ---------------      ----- ------------  ---------------
   188      1.677300  11 C  pz              219     -1.677300  12 C  pz        
   312     -1.677300  15 C  pz              343      1.677300  16 C  pz        
   156     -1.000786  10 C  py              218      1.000786  12 C  py        
   249      1.000786  13 C  py              342     -1.000786  16 C  py        
   125     -0.951964   9 C  py              187      0.951964  11 C  py        

 Vector   48  Occ=0.000000D+00  E= 3.472940D-01  Symmetry=a1g
              MO Center=  1.0D-15, -1.4D-15,  2.2D-15, r^2= 6.8D+00
   Bfn.  Coefficient  Atom+Function         Bfn.  Coefficient  Atom+Function  
  ----- ------------  ---------------      ----- ------------  ---------------
   117      0.855169   9 C  s               148      0.855169  10 C  s         
   179      0.855169  11 C  s               210      0.855169  12 C  s         
   241      0.855169  13 C  s               272      0.855169  14 C  s         
   303      0.855169  15 C  s               334      0.855169  16 C  s         
   116     -0.566000   9 C  s               147     -0.566000  10 C  s         

 Vector   49  Occ=0.000000D+00  E= 3.661770D-01  Symmetry=t2u
              MO Center=  5.5D-14,  3.3D-15,  1.2D-14, r^2= 8.9D+00
   Bfn.  Coefficient  Atom+Function         Bfn.  Coefficient  Atom+Function  
  ----- ------------  ---------------      ----- ------------  ---------------
   124      0.672817   9 C  px              217     -0.672817  12 C  px        
   279      0.672817  14 C  px              341     -0.672817  16 C  px        
   125     -0.629929   9 C  py              187      0.629929  11 C  py        
   280     -0.629929  14 C  py              311      0.629929  15 C  py        
   156      0.406795  10 C  py              218     -0.406795  12 C  py        

 Vector   50  Occ=0.000000D+00  E= 3.661770D-01  Symmetry=t2u
              MO Center=  1.7D-14,  1.9D-14, -2.0D-15, r^2= 8.9D+00
   Bfn.  Coefficient  Atom+Function         Bfn.  Coefficient  Atom+Function  
  ----- ------------  ---------------      ----- ------------  ---------------
   126      0.778919   9 C  pz              157     -0.778919  10 C  pz        
   250     -0.778919  13 C  pz              281      0.778919  14 C  pz        
   125     -0.433967   9 C  py              187      0.433967  11 C  py        
   280     -0.433967  14 C  py              311      0.433967  15 C  py        
   156     -0.395422  10 C  py              218      0.395422  12 C  py        

 Vector   51  Occ=0.000000D+00  E= 3.661770D-01  Symmetry=t2u
              MO Center= -2.0D-14,  6.9D-16,  3.7D-14, r^2= 8.9D+00
   Bfn.  Coefficient  Atom+Function         Bfn.  Coefficient  Atom+Function  
  ----- ------------  ---------------      ----- ------------  ---------------
   188      0.732591  11 C  pz              219     -0.732591  12 C  pz        
   312      0.732591  15 C  pz              343     -0.732591  16 C  pz        
   155      0.574898  10 C  px              186     -0.574898  11 C  px        
   248      0.574898  13 C  px              310     -0.574898  15 C  px        
   156     -0.536809  10 C  py              218      0.536809  12 C  py        

 Vector   52  Occ=0.000000D+00  E= 4.334508D-01  Symmetry=t1u
              MO Center=  4.2D-14,  5.0D-14, -6.8D-14, r^2= 7.2D+00
   Bfn.  Coefficient  Atom+Function         Bfn.  Coefficient  Atom+Function  
  ----- ------------  ---------------      ----- ------------  ---------------
   148      3.269000  10 C  s               241     -3.269000  13 C  s         
   210     -3.140394  12 C  s               334      3.140394  16 C  s         
   155      2.911137  10 C  px              248      2.911137  13 C  px        
   217      2.848101  12 C  px              341      2.848101  16 C  px        
   124      2.549166   9 C  px              279      2.549166  14 C  px        

 Vector   53  Occ=0.000000D+00  E= 4.334508D-01  Symmetry=t1u
              MO Center=  6.4D-13,  2.5D-13, -7.5D-13, r^2= 7.2D+00
   Bfn.  Coefficient  Atom+Function         Bfn.  Coefficient  Atom+Function  
  ----- ------------  ---------------      ----- ------------  ---------------
   179     -3.264915  11 C  s               303      3.264915  15 C  s         
   148      3.053090  10 C  s               241     -3.053090  13 C  s         
   187      2.911388  11 C  py              311      2.911388  15 C  py        
   156      2.807562  10 C  py              249      2.807562  13 C  py        
   210      2.627578  12 C  s               334     -2.627578  16 C  s         

 Vector   54  Occ=0.000000D+00  E= 4.334508D-01  Symmetry=t1u
              MO Center= -6.3D-14,  1.7D-13, -1.4D-13, r^2= 7.2D+00
   Bfn.  Coefficient  Atom+Function         Bfn.  Coefficient  Atom+Function  
  ----- ------------  ---------------      ----- ------------  ---------------
   117      3.507342   9 C  s               272     -3.507342  14 C  s         
   126     -3.020007   9 C  pz              281     -3.020007  14 C  pz        
   179     -2.848154  11 C  s               303      2.848154  15 C  s         
   210     -2.788288  12 C  s               334      2.788288  16 C  s         
   188     -2.696906  11 C  pz              312     -2.696906  15 C  pz        

 Vector   55  Occ=0.000000D+00  E= 4.590730D-01  Symmetry=eu
              MO Center=  1.3D-13,  1.2D-13,  1.9D-14, r^2= 9.2D+00
   Bfn.  Coefficient  Atom+Function         Bfn.  Coefficient  Atom+Function  
  ----- ------------  ---------------      ----- ------------  ---------------
   124      3.282296   9 C  px              155     -3.282296  10 C  px        
   186     -3.282296  11 C  px              217      3.282296  12 C  px        
   248     -3.282296  13 C  px              279      3.282296  14 C  px        
   310     -3.282296  15 C  px              341      3.282296  16 C  px        
   125     -2.909484   9 C  py              156      2.909484  10 C  py        

 Vector   56  Occ=0.000000D+00  E= 4.590730D-01  Symmetry=eu
              MO Center=  1.2D-14,  5.2D-14, -4.3D-14, r^2= 9.2D+00
   Bfn.  Coefficient  Atom+Function         Bfn.  Coefficient  Atom+Function  
  ----- ------------  ---------------      ----- ------------  ---------------
   126      3.574826   9 C  pz              157      3.574826  10 C  pz        
   188     -3.574826  11 C  pz              219     -3.574826  12 C  pz        
   250      3.574826  13 C  pz              281      3.574826  14 C  pz        
   312     -3.574826  15 C  pz              343     -3.574826  16 C  pz        
   125     -2.110278   9 C  py              156      2.110278  10 C  py        

 Vector   57  Occ=0.000000D+00  E= 4.810327D-01  Symmetry=a1g
              MO Center= -2.1D-14, -1.4D-13,  1.2D-13, r^2= 1.0D+01
   Bfn.  Coefficient  Atom+Function         Bfn.  Coefficient  Atom+Function  
  ----- ------------  ---------------      ----- ------------  ---------------
     3      2.304865   1 H  s                17      2.304865   2 H  s         
    31      2.304865   3 H  s                45      2.304865   4 H  s         
    59      2.304865   5 H  s                73      2.304865   6 H  s         
    87      2.304865   7 H  s               101      2.304865   8 H  s         
   117     -1.585394   9 C  s               148     -1.585394  10 C  s         

 Vector   58  Occ=0.000000D+00  E= 5.489561D-01  Symmetry=t1u
              MO Center= -6.2D-14, -2.3D-13,  1.6D-13, r^2= 8.9D+00
   Bfn.  Coefficient  Atom+Function         Bfn.  Coefficient  Atom+Function  
  ----- ------------  ---------------      ----- ------------  ---------------
   148      5.951449  10 C  s               241     -5.951449  13 C  s         
   179     -5.424816  11 C  s               303      5.424816  15 C  s         
    17     -2.212173   2 H  s                59      2.212173   5 H  s         
    31      2.016422   3 H  s                87     -2.016422   7 H  s         
   147     -1.470875  10 C  s               240      1.470875  13 C  s         


 center of mass
 --------------
 x =   0.00000000 y =   0.00000000 z =   0.00000000

 moments of inertia (a.u.)
 ------------------
         528.843892263184           0.000000000000           0.000000000000
           0.000000000000         528.843892263184           0.000000000000
           0.000000000000           0.000000000000         528.843892263184

  Mulliken analysis of the total density
  --------------------------------------

    Atom       Charge   Shell Charges
 -----------   ------   -------------------------------------------------------
    1 H    1     0.88   0.27  0.48  0.09  0.01  0.03  0.00
    2 H    1     0.88   0.27  0.48  0.09  0.01  0.03  0.00
    3 H    1     0.88   0.27  0.48  0.09  0.01  0.03  0.00
    4 H    1     0.88   0.27  0.48  0.09  0.01  0.03  0.00
    5 H    1     0.88   0.27  0.48  0.09  0.01  0.03  0.00
    6 H    1     0.88   0.27  0.48  0.09  0.01  0.03  0.00
    7 H    1     0.88   0.27  0.48  0.09  0.01  0.03  0.00
    8 H    1     0.88   0.27  0.48  0.09  0.01  0.03  0.00
    9 C    6     6.12   0.85  1.12  0.45  0.75 -0.01  1.22  1.32  0.29  0.03  0.10  0.01
   10 C    6     6.12   0.85  1.12  0.45  0.75 -0.01  1.22  1.32  0.29  0.03  0.10  0.01
   11 C    6     6.12   0.85  1.12  0.45  0.75 -0.01  1.22  1.32  0.29  0.03  0.10  0.01
   12 C    6     6.12   0.85  1.12  0.45  0.75 -0.01  1.22  1.32  0.29  0.03  0.10  0.01
   13 C    6     6.12   0.85  1.12  0.45  0.75 -0.01  1.22  1.32  0.29  0.03  0.10  0.01
   14 C    6     6.12   0.85  1.12  0.45  0.75 -0.01  1.22  1.32  0.29  0.03  0.10  0.01
   15 C    6     6.12   0.85  1.12  0.45  0.75 -0.01  1.22  1.32  0.29  0.03  0.10  0.01
   16 C    6     6.12   0.85  1.12  0.45  0.75 -0.01  1.22  1.32  0.29  0.03  0.10  0.01

       Multipole analysis of the density wrt the origin
       ------------------------------------------------

     L   x y z        total         open         nuclear
     -   - - -        -----         ----         -------
     0   0 0 0     -0.000000      0.000000     56.000000

     1   1 0 0     -0.000000      0.000000      0.000000
     1   0 1 0      0.000000      0.000000      0.000000
     1   0 0 1     -0.000000      0.000000      0.000000

     2   2 0 0    -34.887858      0.000000    160.044214
     2   1 1 0      0.000000      0.000000      0.000000
     2   1 0 1     -0.000000      0.000000      0.000000
     2   0 2 0    -34.887858      0.000000    160.044214
     2   0 1 1      0.000000      0.000000      0.000000
     2   0 0 2    -34.887858      0.000000    160.044214


------------------------------------------------------------
EAF file 0: "./cubane.aoints.0" size=44040192 bytes
------------------------------------------------------------
               write      read    awrite     aread      wait
               -----      ----    ------     -----      ----
     calls:      464        10         0      1126      1126
   data(b): 2.43e+08  5.24e+06  0.00e+00  5.90e+08
   time(s): 0.00e+00  0.00e+00  0.00e+00  0.00e+00  0.00e+00
rate(mb/s): 0.00e+00  0.00e+00
------------------------------------------------------------


 Parallel integral file used    1924 records with       0 large values

                              NWChem Gradients Module
                              -----------------------


                    cubane HF/def2-TZVPP geometry optimization


  wavefunction    =   RHF     

  Using symmetry


                         RHF ENERGY GRADIENTS

    atom               coordinates                        gradient
                 x          y          z           x          y          z
   1 H       2.648243   2.648243   2.648243    0.000042   0.000042   0.000042
   2 H      -2.648243  -2.648243   2.648243   -0.000042  -0.000042   0.000042
   3 H      -2.648243   2.648243  -2.648243   -0.000042   0.000042  -0.000042
   4 H       2.648243  -2.648243  -2.648243    0.000042  -0.000042  -0.000042
   5 H       2.648243   2.648243  -2.648243    0.000042   0.000042  -0.000042
   6 H      -2.648243  -2.648243  -2.648243   -0.000042  -0.000042  -0.000042
   7 H       2.648243  -2.648243   2.648243    0.000042  -0.000042   0.000042
   8 H      -2.648243   2.648243   2.648243   -0.000042   0.000042   0.000042
   9 C       1.471526   1.471526   1.471526   -0.000077  -0.000077  -0.000077
  10 C      -1.471526  -1.471526   1.471526    0.000077   0.000077  -0.000077
  11 C      -1.471526   1.471526  -1.471526    0.000077  -0.000077   0.000077
  12 C       1.471526  -1.471526  -1.471526   -0.000077   0.000077   0.000077
  13 C       1.471526   1.471526  -1.471526   -0.000077  -0.000077   0.000077
  14 C      -1.471526  -1.471526  -1.471526    0.000077   0.000077   0.000077
  15 C       1.471526  -1.471526   1.471526   -0.000077   0.000077  -0.000077
  16 C      -1.471526   1.471526   1.471526    0.000077  -0.000077  -0.000077

                 ----------------------------------------
                 |  Time  |  1-e(secs)   |  2-e(secs)   |
                 ----------------------------------------
                 |  CPU   |       0.10   |      68.70   |
                 ----------------------------------------
                 |  WALL  |       0.18   |      94.24   |
                 ----------------------------------------

@ Step       Energy      Delta E   Gmax     Grms     Xrms     Xmax   Walltime
@ ---- ---------------- -------- -------- -------- -------- -------- --------
@    0    -307.49407716  0.0D+00  0.00007  0.00002  0.00000  0.00000    254.2
                                     ok       ok       ok       ok  



                                Z-matrix (autoz)
                                -------- 

 Units are Angstrom for bonds and degrees for angles

      Type          Name      I     J     K     L     M      Value     Gradient
      ----------- --------  ----- ----- ----- ----- ----- ---------- ----------
    1 Stretch                  1     9                       1.07853    0.00007
    2 Stretch                  2    10                       1.07853    0.00007
    3 Stretch                  3    11                       1.07853    0.00007
    4 Stretch                  4    12                       1.07853    0.00007
    5 Stretch                  5    13                       1.07853    0.00007
    6 Stretch                  6    14                       1.07853    0.00007
    7 Stretch                  7    15                       1.07853    0.00007
    8 Stretch                  8    16                       1.07853    0.00007
    9 Stretch                  9    13                       1.55740   -0.00003
   10 Stretch                  9    15                       1.55740   -0.00003
   11 Stretch                  9    16                       1.55740   -0.00003
   12 Stretch                 10    14                       1.55740   -0.00003
   13 Stretch                 10    15                       1.55740   -0.00003
   14 Stretch                 10    16                       1.55740   -0.00003
   15 Stretch                 11    13                       1.55740   -0.00003
   16 Stretch                 11    14                       1.55740   -0.00003
   17 Stretch                 11    16                       1.55740   -0.00003
   18 Stretch                 12    13                       1.55740   -0.00003
   19 Stretch                 12    14                       1.55740   -0.00003
   20 Stretch                 12    15                       1.55740   -0.00003
   21 Bend                     1     9    13               125.26439    0.00000
   22 Bend                     1     9    15               125.26439    0.00000
   23 Bend                     1     9    16               125.26439   -0.00000
   24 Bend                     2    10    14               125.26439   -0.00000
   25 Bend                     2    10    15               125.26439    0.00000
   26 Bend                     2    10    16               125.26439   -0.00000
   27 Bend                     3    11    13               125.26439   -0.00000
   28 Bend                     3    11    14               125.26439    0.00000
   29 Bend                     3    11    16               125.26439   -0.00000
   30 Bend                     4    12    13               125.26439   -0.00000
   31 Bend                     4    12    14               125.26439    0.00000
   32 Bend                     4    12    15               125.26439    0.00000
   33 Bend                     5    13     9               125.26439    0.00000
   34 Bend                     5    13    11               125.26439    0.00000
   35 Bend                     5    13    12               125.26439   -0.00000
   36 Bend                     6    14    10               125.26439   -0.00000
   37 Bend                     6    14    11               125.26439    0.00000
   38 Bend                     6    14    12               125.26439   -0.00000
   39 Bend                     7    15     9               125.26439   -0.00000
[...]
   53 Bend                    10    15    12                90.00000    0.00000
   54 Bend                    10    16    11                90.00000    0.00000
   55 Bend                    11    13    12                90.00000    0.00000
   56 Bend                    11    14    12                90.00000    0.00000
   57 Bend                    13     9    15                90.00000    0.00000
   58 Bend                    13     9    16                90.00000    0.00000
   59 Bend                    13    11    14                90.00000    0.00000
   60 Bend                    13    11    16                90.00000    0.00000
   61 Bend                    13    12    14                90.00000    0.00000
   62 Bend                    13    12    15                90.00000    0.00000
   63 Bend                    14    10    15                90.00000    0.00000
   64 Bend                    14    10    16                90.00000    0.00000
   65 Bend                    14    11    16                90.00000    0.00000
   66 Bend                    14    12    15                90.00000    0.00000
   67 Bend                    15     9    16                90.00000    0.00000
   68 Bend                    15    10    16                90.00000    0.00000
   69 Torsion                  1     9    13     5           0.00000    0.00000
   70 Torsion                  1     9    13    11        -135.00000    0.00000
   71 Torsion                  1     9    13    12         135.00000    0.00000
   72 Torsion                  1     9    15     7           0.00000    0.00000
   73 Torsion                  1     9    15    10         135.00000    0.00000
   74 Torsion                  1     9    15    12        -135.00000    0.00000
   75 Torsion                  1     9    16     8           0.00000    0.00000
   76 Torsion                  1     9    16    10        -135.00000    0.00000
   77 Torsion                  1     9    16    11         135.00000    0.00000
   78 Torsion                  2    10    14     6           0.00000    0.00000
   79 Torsion                  2    10    14    11         135.00000    0.00000
   80 Torsion                  2    10    14    12        -135.00000    0.00000
   81 Torsion                  2    10    15     7           0.00000    0.00000
   82 Torsion                  2    10    15     9        -135.00000    0.00000
   83 Torsion                  2    10    15    12         135.00000    0.00000
   84 Torsion                  2    10    16     8           0.00000    0.00000
   85 Torsion                  2    10    16     9         135.00000    0.00000
   86 Torsion                  2    10    16    11        -135.00000    0.00000
   87 Torsion                  3    11    13     5           0.00000    0.00000
   88 Torsion                  3    11    13     9         135.00000    0.00000
   89 Torsion                  3    11    13    12        -135.00000    0.00000
   90 Torsion                  3    11    14     6           0.00000    0.00000
   91 Torsion                  3    11    14    10        -135.00000    0.00000
   92 Torsion                  3    11    14    12         135.00000    0.00000
   93 Torsion                  3    11    16     8           0.00000    0.00000
   94 Torsion                  3    11    16     9        -135.00000    0.00000
   95 Torsion                  3    11    16    10         135.00000    0.00000
   96 Torsion                  4    12    13     5           0.00000    0.00000
   97 Torsion                  4    12    13     9        -135.00000    0.00000
   98 Torsion                  4    12    13    11         135.00000    0.00000
   99 Torsion                  4    12    14     6           0.00000    0.00000
  100 Torsion                  4    12    14    10         135.00000    0.00000
  101 Torsion                  4    12    14    11        -135.00000    0.00000
  102 Torsion                  4    12    15     7           0.00000    0.00000
  103 Torsion                  4    12    15     9         135.00000    0.00000
  104 Torsion                  4    12    15    10        -135.00000    0.00000
  105 Torsion                  5    13     9    15        -135.00000    0.00000
  106 Torsion                  5    13     9    16         135.00000    0.00000
  107 Torsion                  5    13    11    14         135.00000    0.00000
  108 Torsion                  5    13    11    16        -135.00000    0.00000
  109 Torsion                  5    13    12    14        -135.00000    0.00000
  110 Torsion                  5    13    12    15         135.00000    0.00000
  111 Torsion                  6    14    10    15         135.00000    0.00000
  112 Torsion                  6    14    10    16        -135.00000    0.00000
  113 Torsion                  6    14    11    13        -135.00000    0.00000
  114 Torsion                  6    14    11    16         135.00000    0.00000
  115 Torsion                  6    14    12    13         135.00000    0.00000
  116 Torsion                  6    14    12    15        -135.00000    0.00000
  117 Torsion                  7    15     9    13         135.00000    0.00000
  118 Torsion                  7    15     9    16        -135.00000    0.00000
  119 Torsion                  7    15    10    14        -135.00000    0.00000
  120 Torsion                  7    15    10    16         135.00000    0.00000
  121 Torsion                  7    15    12    13        -135.00000    0.00000
  122 Torsion                  7    15    12    14         135.00000    0.00000
  123 Torsion                  8    16     9    13        -135.00000    0.00000
  124 Torsion                  8    16     9    15         135.00000    0.00000
  125 Torsion                  8    16    10    14         135.00000    0.00000
  126 Torsion                  8    16    10    15        -135.00000    0.00000
  127 Torsion                  8    16    11    13         135.00000    0.00000
  128 Torsion                  8    16    11    14        -135.00000    0.00000
  129 Torsion                  9    13    11    14         -90.00000    0.00000
  130 Torsion                  9    13    11    16           0.00000    0.00000
  131 Torsion                  9    13    12    14          90.00000    0.00000
  132 Torsion                  9    13    12    15           0.00000    0.00000
  133 Torsion                  9    15    10    14          90.00000    0.00000
  134 Torsion                  9    15    10    16           0.00000    0.00000
  135 Torsion                  9    15    12    13           0.00000    0.00000
  136 Torsion                  9    15    12    14         -90.00000    0.00000
  137 Torsion                  9    16    10    14         -90.00000    0.00000
  138 Torsion                  9    16    10    15           0.00000    0.00000
  139 Torsion                  9    16    11    13           0.00000    0.00000
  140 Torsion                  9    16    11    14          90.00000    0.00000
  141 Torsion                 10    14    11    13          90.00000    0.00000
  142 Torsion                 10    14    11    16           0.00000    0.00000
  143 Torsion                 10    14    12    13         -90.00000    0.00000
  144 Torsion                 10    14    12    15           0.00000    0.00000
  145 Torsion                 10    15     9    13         -90.00000    0.00000
  146 Torsion                 10    15     9    16           0.00000    0.00000
  147 Torsion                 10    15    12    13          90.00000    0.00000
  148 Torsion                 10    15    12    14           0.00000    0.00000
  149 Torsion                 10    16     9    13          90.00000    0.00000
  150 Torsion                 10    16     9    15           0.00000    0.00000
  151 Torsion                 10    16    11    13         -90.00000    0.00000
  152 Torsion                 10    16    11    14           0.00000    0.00000
  153 Torsion                 11    13     9    15          90.00000    0.00000
  154 Torsion                 11    13     9    16           0.00000    0.00000
  155 Torsion                 11    13    12    14           0.00000    0.00000
  156 Torsion                 11    13    12    15         -90.00000    0.00000
  157 Torsion                 11    14    10    15         -90.00000    0.00000
  158 Torsion                 11    14    10    16           0.00000    0.00000
  159 Torsion                 11    14    12    13           0.00000    0.00000
  160 Torsion                 11    14    12    15          90.00000    0.00000
  161 Torsion                 11    16     9    13           0.00000    0.00000
  162 Torsion                 11    16     9    15         -90.00000    0.00000
  163 Torsion                 11    16    10    14           0.00000    0.00000
  164 Torsion                 11    16    10    15          90.00000    0.00000
  165 Torsion                 12    13     9    15           0.00000    0.00000
  166 Torsion                 12    13     9    16         -90.00000    0.00000
  167 Torsion                 12    13    11    14           0.00000    0.00000
  168 Torsion                 12    13    11    16          90.00000    0.00000
  169 Torsion                 12    14    10    15           0.00000    0.00000
  170 Torsion                 12    14    10    16          90.00000    0.00000
  171 Torsion                 12    14    11    13           0.00000    0.00000
  172 Torsion                 12    14    11    16         -90.00000    0.00000
  173 Torsion                 12    15     9    13           0.00000    0.00000
  174 Torsion                 12    15     9    16          90.00000    0.00000
  175 Torsion                 12    15    10    14           0.00000    0.00000
  176 Torsion                 12    15    10    16         -90.00000    0.00000

 ==============================================================================
                                internuclear distances
 ------------------------------------------------------------------------------
       center one      |      center two      | atomic units |  angstroms
 ------------------------------------------------------------------------------
    9 C                |   1 H                |     2.03793  |     1.07842
   10 C                |   2 H                |     2.03793  |     1.07842
   11 C                |   3 H                |     2.03793  |     1.07842
   12 C                |   4 H                |     2.03793  |     1.07842
   13 C                |   5 H                |     2.03793  |     1.07842
   13 C                |   9 C                |     2.94315  |     1.55745
   13 C                |  11 C                |     2.94315  |     1.55745
   13 C                |  12 C                |     2.94315  |     1.55745
   14 C                |   6 H                |     2.03793  |     1.07842
   14 C                |  10 C                |     2.94315  |     1.55745
   14 C                |  11 C                |     2.94315  |     1.55745
   14 C                |  12 C                |     2.94315  |     1.55745
   15 C                |   7 H                |     2.03793  |     1.07842
   15 C                |   9 C                |     2.94315  |     1.55745
   15 C                |  10 C                |     2.94315  |     1.55745
   15 C                |  12 C                |     2.94315  |     1.55745
   16 C                |   8 H                |     2.03793  |     1.07842
   16 C                |   9 C                |     2.94315  |     1.55745
   16 C                |  10 C                |     2.94315  |     1.55745
   16 C                |  11 C                |     2.94315  |     1.55745
 ------------------------------------------------------------------------------
                         number of included internuclear distances:         20
 ==============================================================================



 ==============================================================================
                                 internuclear angles
 ------------------------------------------------------------------------------
        center 1       |       center 2       |       center 3       |  degrees
 ------------------------------------------------------------------------------
    1 H                |   9 C                |  13 C                |   125.26
    1 H                |   9 C                |  15 C                |   125.26
    1 H                |   9 C                |  16 C                |   125.26
   13 C                |   9 C                |  15 C                |    90.00
   13 C                |   9 C                |  16 C                |    90.00
   15 C                |   9 C                |  16 C                |    90.00
    2 H                |  10 C                |  14 C                |   125.26
    2 H                |  10 C                |  15 C                |   125.26
    2 H                |  10 C                |  16 C                |   125.26
   14 C                |  10 C                |  15 C                |    90.00
   14 C                |  10 C                |  16 C                |    90.00
   15 C                |  10 C                |  16 C                |    90.00
    3 H                |  11 C                |  13 C                |   125.26
    3 H                |  11 C                |  14 C                |   125.26
    3 H                |  11 C                |  16 C                |   125.26
   13 C                |  11 C                |  14 C                |    90.00
   13 C                |  11 C                |  16 C                |    90.00
   14 C                |  11 C                |  16 C                |    90.00
    4 H                |  12 C                |  13 C                |   125.26
    4 H                |  12 C                |  14 C                |   125.26
    4 H                |  12 C                |  15 C                |   125.26
   13 C                |  12 C                |  14 C                |    90.00
   13 C                |  12 C                |  15 C                |    90.00
   14 C                |  12 C                |  15 C                |    90.00
    5 H                |  13 C                |   9 C                |   125.26
    5 H                |  13 C                |  11 C                |   125.26
    5 H                |  13 C                |  12 C                |   125.26
    9 C                |  13 C                |  11 C                |    90.00
    9 C                |  13 C                |  12 C                |    90.00
   11 C                |  13 C                |  12 C                |    90.00
    6 H                |  14 C                |  10 C                |   125.26
    6 H                |  14 C                |  11 C                |   125.26
    6 H                |  14 C                |  12 C                |   125.26
   10 C                |  14 C                |  11 C                |    90.00
   10 C                |  14 C                |  12 C                |    90.00
   11 C                |  14 C                |  12 C                |    90.00
    7 H                |  15 C                |   9 C                |   125.26
    7 H                |  15 C                |  10 C                |   125.26
    7 H                |  15 C                |  12 C                |   125.26
    9 C                |  15 C                |  10 C                |    90.00
    9 C                |  15 C                |  12 C                |    90.00
   10 C                |  15 C                |  12 C                |    90.00
    8 H                |  16 C                |   9 C                |   125.26
    8 H                |  16 C                |  10 C                |   125.26
    8 H                |  16 C                |  11 C                |   125.26
    9 C                |  16 C                |  10 C                |    90.00
    9 C                |  16 C                |  11 C                |    90.00
   10 C                |  16 C                |  11 C                |    90.00
 ------------------------------------------------------------------------------
                            number of included internuclear angles:         48
 ==============================================================================




 Task  times  cpu:      283.6s     wall:      437.1s


                                NWChem Input Module
                                -------------------


 Summary of allocated global arrays
-----------------------------------
  No active global arrays



                         GA Statistics for process    0
                         ------------------------------

       create   destroy   get      put      acc     scatter   gather  read&inc
calls:  563      563     2.42e+05 4.47e+04 2.48e+05    0        0     7096     
number of processes/call 1.16e+00 1.08e+00 1.00e+00 0.00e+00 0.00e+00
bytes total:             9.99e+08 2.38e+08 1.22e+09 0.00e+00 0.00e+00 5.68e+04
bytes remote:            1.97e+08 3.79e+07 7.52e+07 0.00e+00 0.00e+00 0.00e+00
Max memory consumed for GA by this process: 9250176 bytes

MA_summarize_allocated_blocks: starting scan ...
MA_summarize_allocated_blocks: scan completed: 0 heap blocks, 0 stack blocks
MA usage statistics:

	allocation statistics:
					      heap	     stack
					      ----	     -----
	current number of blocks	         0	         0
	maximum number of blocks	        20	        29
	current total bytes		         0	         0
	maximum total bytes		 461108464	  42867208
	maximum total K-bytes		    461109	     42868
	maximum total M-bytes		       462	        43


                                     CITATION
                                     --------
                Please cite the following reference when publishing
                           results obtained with NWChem:

                 M. Valiev, E.J. Bylaska, N. Govind, K. Kowalski,
              T.P. Straatsma, H.J.J. van Dam, D. Wang, J. Nieplocha,
                        E. Apra, T.L. Windus, W.A. de Jong
                 "NWChem: a comprehensive and scalable open-source
                  solution for large scale molecular simulations"
                      Comput. Phys. Commun. 181, 1477 (2010)
                           doi:10.1016/j.cpc.2010.04.018

                                      AUTHORS
                                      -------
          E. Apra, E. J. Bylaska, W. A. de Jong, N. Govind, K. Kowalski,
       T. P. Straatsma, M. Valiev, H. J. J. van Dam, D. Wang, T. L. Windus,
        J. Hammond, J. Autschbach, K. Bhaskaran-Nair, J. Brabec, K. Lopata,
        S. Krishnamoorthy, W. Ma, M. Klemm, O. Villa, Y. Chen, V. Anisimov,
    F. Aquino, S. Hirata, M. T. Hackler, T. Risthaus, M. Malagoli, A. Marenich,
   A. Otero-de-la-Roza, J. Mullin, P. Nichols, R. Peverati, J. Pittner, Y. Zhao,
         P.-D. Fan, A. Fonari, R. J. Harrison, M. Dupuis, D. Silverstein,
    D. M. A. Smith, J. Nieplocha, V. Tipparaju, M. Krishnan, B. E. Van Kuiken,
        A. Vazquez-Mayagoitia, L. Jensen, M. Swart, Q. Wu, T. Van Voorhis,
     A. A. Auer, M. Nooijen, L. D. Crosby, E. Brown, G. Cisneros, G. I. Fann,
   H. Fruchtl, J. Garza, K. Hirao, R. A. Kendall, J. A. Nichols, K. Tsemekhman,
    K. Wolinski, J. Anchell, D. E. Bernholdt, P. Borowski, T. Clark, D. Clerc,
   H. Dachsel, M. J. O. Deegan, K. Dyall, D. Elwood, E. Glendening, M. Gutowski,
   A. C. Hess, J. Jaffe, B. G. Johnson, J. Ju, R. Kobayashi, R. Kutteh, Z. Lin,
   R. Littlefield, X. Long, B. Meng, T. Nakajima, S. Niu, L. Pollack, M. Rosing,
   K. Glaesemann, G. Sandrone, M. Stave, H. Taylor, G. Thomas, J. H. van Lenthe,
                               A. T. Wong, Z. Zhang.

 Total times  cpu:      283.8s     wall:      437.8s
