
                                 *****************
                                 * O   R   C   A *
                                 *****************

           --- An Ab Initio, DFT and Semiempirical electronic structure package ---

                  #######################################################
                  #                        -***-                        #
                  #  Department of molecular theory and spectroscopy    #
                  #              Directorship: Frank Neese              #
                  # Max Planck Institute for Chemical Energy Conversion #
                  #                  D-45470 Muelheim/Ruhr              #
                  #                       Germany                       #
                  #                                                     #
                  #                  All rights reserved                #
                  #                        -***-                        #
                  #######################################################


                         Program Version 3.0.3 - RELEASE   -


 With contributions from (in alphabetic order):
   Ute Becker             : Parallelization
   Dmytro Bykov           : SCF Hessian
   Dmitry Ganyushin       : Spin-Orbit,Spin-Spin,Magnetic field MRCI
   Andreas Hansen         : Spin unrestricted coupled pair/coupled cluster methods
   Dimitrios Liakos       : Extrapolation schemes; parallel MDCI
   Robert Izsak           : Overlap fitted RIJCOSX, COSX-SCS-MP3
   Christian Kollmar      : KDIIS, OOCD, Brueckner-CCSD(T), CCSD density
   Simone Kossmann        : Meta GGA functionals, TD-DFT gradient, OOMP2, MP2 Hessian
   Taras Petrenko         : DFT Hessian,TD-DFT gradient, ASA and ECA modules, normal mode analysis, Resonance Raman, ABS, FL, XAS/XES, NRVS
   Christoph Reimann      : Effective Core Potentials
   Michael Roemelt        : Restricted open shell CIS
   Christoph Riplinger    : Improved optimizer, TS searches, QM/MM, DLPNO-CCSD
   Barbara Sandhoefer     : DKH picture change effects
   Igor Schapiro          : Molecular dynamics
   Kantharuban Sivalingam : CASSCF convergence, NEVPT2
   Boris Wezisla          : Elementary symmetry handling
   Frank Wennmohs         : Technical directorship


 We gratefully acknowledge several colleagues who have allowed us to
 interface, adapt or use parts of their codes:
   Stefan Grimme, W. Hujo, H. Kruse, T. Risthaus : VdW corrections, initial TS optimization,
                                                   DFT functionals, gCP
   Ed Valeev                                     : LibInt (2-el integral package), F12 methods
   Garnet Chan, S. Sharma, R. Olivares           : DMRG
   Ulf Ekstrom                                   : XCFun DFT Library
   Mihaly Kallay                                 : mrcc  (arbitrary order and MRCC methods)
   Andreas Klamt, Michael Diedenhofen            : otool_cosmo (COSMO solvation model)
   Frank Weinhold                                : gennbo (NPA and NBO analysis)
   Christopher J. Cramer and Donald G. Truhlar   : smd solvation model


 Your calculation uses the libint2 library for the computation of 2-el integrals
 For citations please refer to: http://libint.valeyev.net

 This ORCA versions uses:
   CBLAS   interface :  Fast vector & matrix operations
   LAPACKE interface :  Fast linear algebra routines
   SCALAPACK package :  Parallel linear algebra routines


Your calculation utilizes the basis: Ahlrichs-QZV
Cite in your paper:

================================================================================
                                        WARNINGS
                       Please study these warnings very carefully!
================================================================================
Now building the actual basis set
WARNING: Geometry optimizations can change the point-group symmetry!

WARNING: your system is open-shell and RHF/RKS was chosen
  ===> : WILL SWITCH to UHF/UKS


WARNING: Geometry Optimization
  ===> : Switching off AutoStart
         For restart on a previous wavefunction, please use MOREAD


INFO   : the flag for use of LIBINT has been found!

================================================================================
                                       INPUT FILE
================================================================================
NAME = /home/vladimir/git/private/ORCA/C8H8/T-cubane-1/optimize/DFT/B3LYP/QZVP/./cubane.inp
|  1> # ================================================================
|  2> # Orca input file for cubane B3LYP/def2-QZVP geometry optimization
|  3> # ================================================================
|  4> ! DFT B3LYP def2-QZVP TightSCF TightOPT UseSym
|  5> ! PAL4
|  6> 
|  7> * xyz 0 3
|  8>   H                     2.04751540    -1.28305698     0.01402688
|  9>   C                     1.07000028    -0.81258731    -0.05743553
| 10>   H                     2.04751540     1.28305698     0.01402688
| 11>   C                     1.07000028     0.81258731    -0.05743553
| 12>   H                     0.00000000    -1.61020134    -2.01435917
| 13>   C                     0.00000000    -1.32343256    -0.97118519
| 14>   H                     0.00000000     1.61020134    -2.01435917
| 15>   C                     0.00000000     1.32343256    -0.97118519
| 16>   H                     0.00000000    -1.43834592     1.94754313
| 17>   C                     0.00000000    -0.77028579     1.09274975
| 18>   H                     0.00000000     1.43834592     1.94754313
| 19>   C                     0.00000000     0.77028579     1.09274975
| 20>   H                    -2.04751540    -1.28305698     0.01402688
| 21>   C                    -1.07000028    -0.81258731    -0.05743553
| 22>   H                    -2.04751540     1.28305698     0.01402688
| 23>   C                    -1.07000028     0.81258731    -0.05743553
| 24> *
| 25> 
| 26>                          ****END OF INPUT****
================================================================================

------------------------------------------------------------------------------
                            SYMMETRY HANDLING SETUP
------------------------------------------------------------------------------

------------------
SYMMETRY DETECTION
------------------
Preparing Data                    ... done
Detection Threshold:    SymThresh ... 1.0000e-04

Point Group will now be determined:
Moving molecule to center of mass ... done

POINT GROUP                       ... C2v

The coordinates will now be cleaned:
Moving to standard coord frame    ... done
(Changed main axis to z and one of the symmetry planes to xz plane)
Structure cleanup requested       ... yes
Selected point group              ... C2v
Cleaning Tolerance      SymThresh ... 1.0000e-04

Some missing point group data is constructed:
Constructing symmetry operations  ... done
Creating atom transfer table      ... done
Creating asymmetric unit          ... done

Cleaning coordinates              ... done

-----------------------------------------------
SYMMETRY-PERFECTED CARTESIAN COORDINATES (A.U.)
-----------------------------------------------
   0 H     3.86924336   2.42462631  -0.02500743 
   1 C     2.02200749   1.53556748   0.11003695 
   2 H     3.86924336  -2.42462631  -0.02500743 
   3 C     2.02200749  -1.53556748   0.11003695 
   4 H     0.00000000   3.04283955   3.80808670 
   5 C     0.00000000   2.50092510   1.83677357 
   6 H     0.00000000  -3.04283955   3.80808670 
   7 C     0.00000000  -2.50092510   1.83677357 
   8 H     0.00000000   2.71807987  -3.67882362 
   9 C     0.00000000   1.45562919  -2.06349823 
  10 H     0.00000000  -2.71807987  -3.67882362 
  11 C     0.00000000  -1.45562919  -2.06349823 
  12 H    -3.86924336   2.42462631  -0.02500743 
  13 C    -2.02200749   1.53556748   0.11003695 
  14 H    -3.86924336  -2.42462631  -0.02500743 
  15 C    -2.02200749  -1.53556748   0.11003695 

------------------
SYMMETRY REDUCTION
------------------
ORCA supports only abelian point groups.
It is now checked, if the determined point group is supported:
Point Group ( C2v   ) is          ... supported

(Re)building abelian point group:
Creating Character Table          ... done
Making direct product table       ... done

----------------------
ASYMMETRIC UNIT IN C2v
----------------------
  #  AT     MASS              COORDS (A.U.)             BAS
   0 H    1.0080   3.86924336   2.42462631  -0.02500743   0
   1 C   12.0110   2.02200749   1.53556748   0.11003695   0
   4 H    1.0080   0.00000000   3.04283955   3.80808670   0
   5 C   12.0110   0.00000000   2.50092510   1.83677357   0
   8 H    1.0080   0.00000000   2.71807987  -3.67882362   0
   9 C   12.0110   0.00000000   1.45562919  -2.06349823   0

----------------------
SYMMETRY ADAPTED BASIS
----------------------
The coefficients for the symmetry adapted linear combinations (SALCS)
of basis functions will now be computed:
Number of basis functions         ...   696
Preparing memory                  ... done
Constructing Gamma(red)           ... done
Reducing Gamma(red)               ... done
Constructing SALCs                ... done
Checking SALC integrity           ... nothing suspicious
Normalizing SALCs                 ... done

Storing the symmetry object:
Symmetry file                     ... /home/vladimir/git/private/ORCA/C8H8/T-cubane-1/optimize/DFT/B3LYP/QZVP/./cubane.sym.tmp
Writing symmetry information      ... done

                       *****************************
                       * Geometry Optimization Run *
                       *****************************

Geometry optimization settings:
Update method            Update   .... BFGS
Choice of coordinates    CoordSys .... Redundant Internals
Initial Hessian          InHess   .... Almoef's Model

Convergence Tolerances:
Energy Change            TolE     ....  1.0000e-06 Eh
Max. Gradient            TolMAXG  ....  1.0000e-04 Eh/bohr
RMS Gradient             TolRMSG  ....  3.0000e-05 Eh/bohr
Max. Displacement        TolMAXD  ....  1.0000e-03 bohr
RMS Displacement         TolRMSD  ....  6.0000e-04 bohr

------------------------------------------------------------------------------
                        ORCA OPTIMIZATION COORDINATE SETUP
------------------------------------------------------------------------------

The optimization will be done in new redundant internal coordinates
Making redundant internal coordinates   ...  (new redundants) done
Evaluating the initial hessian          ...  (Almloef) done
Evaluating the coordinates              ...  done
Calculating the B-matrix                .... done
Calculating the G-matrix                .... done
Diagonalizing the G-matrix              .... done
The first mode is                       ....  106
The number of degrees of freedom        ....   42

    -----------------------------------------------------------------
                    Redundant Internal Coordinates


    -----------------------------------------------------------------
         Definition                    Initial Value    Approx d2E/dq
    -----------------------------------------------------------------
      1. B(C   1,H   0)                  1.0872         0.363835   
      2. B(C   3,C   1)                  1.6252         0.263349   
      3. B(C   3,H   2)                  1.0872         0.363835   
      4. B(C   5,H   4)                  1.0819         0.371014   
      5. B(C   5,C   1)                  1.4969         0.421830   
      6. B(C   7,H   6)                  1.0819         0.371014   
      7. B(C   7,C   3)                  1.4969         0.421830   
      8. B(C   9,H   8)                  1.0849         0.366930   
      9. B(C   9,C   1)                  1.5715         0.320749   
     10. B(C  11,H  10)                  1.0849         0.366930   
     11. B(C  11,C   9)                  1.5406         0.359345   
     12. B(C  11,C   3)                  1.5715         0.320749   
     13. B(C  13,H  12)                  1.0872         0.363835   
     14. B(C  13,C   9)                  1.5715         0.320749   
     15. B(C  13,C   5)                  1.4969         0.421830   
     16. B(C  15,H  14)                  1.0872         0.363835   
     17. B(C  15,C  13)                  1.6252         0.263349   
     18. B(C  15,C  11)                  1.5715         0.320749   
     19. B(C  15,C   7)                  1.4969         0.421830   
     20. A(H   0,C   1,C   5)          122.3530         0.331445   
     21. A(C   5,C   1,C   9)           88.2385         0.361435   
     22. A(H   0,C   1,C   3)          115.6415         0.306923   
     23. A(H   0,C   1,C   9)          125.1508         0.316869   
     24. A(C   3,C   1,C   5)          109.9538         0.349544   
     25. A(C   3,C   1,C   9)           88.4575         0.333880   
     26. A(H   2,C   3,C  11)          125.1508         0.316869   
     27. A(C   1,C   3,C  11)           88.4575         0.333880   
     28. A(H   2,C   3,C   7)          122.3530         0.331445   
     29. A(C   1,C   3,H   2)          115.6415         0.306923   
     30. A(C   1,C   3,C   7)          109.9538         0.349544   
     31. A(C   7,C   3,C  11)           88.2385         0.361435   
     32. A(H   4,C   5,C  13)          132.7685         0.332519   
     33. A(C   1,C   5,H   4)          132.7685         0.332519   
     34. A(C   1,C   5,C  13)           91.2530         0.378861   
     35. A(H   6,C   7,C  15)          132.7685         0.332519   
     36. A(C   3,C   7,C  15)           91.2530         0.378861   
     37. A(C   3,C   7,H   6)          132.7685         0.332519   
     38. A(C  11,C   9,C  13)           91.5425         0.351726   
     39. A(H   8,C   9,C  13)          124.0626         0.317306   
     40. A(C   1,C   9,H   8)          124.0626         0.317306   
     41. A(C   1,C   9,C  13)           85.8245         0.345056   
     42. A(H   8,C   9,C  11)          128.0093         0.323254   
     43. A(C   1,C   9,C  11)           91.5425         0.351726   
     44. A(C   3,C  11,C  15)           85.8245         0.345056   
     45. A(C   9,C  11,H  10)          128.0093         0.323254   
     46. A(C   3,C  11,H  10)          124.0626         0.317306   
     47. A(C   3,C  11,C   9)           91.5425         0.351726   
     48. A(H  10,C  11,C  15)          124.0626         0.317306   
     49. A(C   9,C  11,C  15)           91.5425         0.351726   
     50. A(C   9,C  13,H  12)          125.1508         0.316869   
     51. A(C   5,C  13,H  12)          122.3530         0.331445   
     52. A(C   5,C  13,C   9)           88.2385         0.361435   
     53. A(H  12,C  13,C  15)          115.6415         0.306923   
     54. A(C   9,C  13,C  15)           88.4575         0.333880   
     55. A(C   5,C  13,C  15)          109.9538         0.349544   
     56. A(C  13,C  15,H  14)          115.6415         0.306923   
     57. A(C  11,C  15,H  14)          125.1508         0.316869   
     58. A(C   7,C  15,H  14)          122.3530         0.331445   
     59. A(C  11,C  15,C  13)           88.4575         0.333880   
     60. A(C   7,C  15,C  13)          109.9538         0.349544   
     61. A(C   7,C  15,C  11)           88.2385         0.361435   
     62. D(C   7,C   3,C   1,C   9)    -87.5648         0.006037   
     63. D(C  11,C   3,C   1,C   9)      0.0000         0.006037   
     64. D(H   2,C   3,C   1,H   0)      0.0000         0.006037   
     65. D(C  11,C   3,C   1,C   5)     87.5648         0.006037   
     66. D(H   2,C   3,C   1,C   5)   -143.6849         0.006037   
     67. D(H   2,C   3,C   1,C   9)    128.7503         0.006037   
     68. D(C   7,C   3,C   1,H   0)    143.6849         0.006037   
     69. D(C   7,C   3,C   1,C   5)      0.0000         0.006037   
     70. D(C  11,C   3,C   1,H   0)   -128.7503         0.006037   
     71. D(C  13,C   5,C   1,C   9)     19.5006         0.013154   
     72. D(C  13,C   5,C   1,C   3)    -68.2175         0.013154   
     73. D(C  13,C   5,C   1,H   0)    150.9812         0.013154   
     74. D(H   4,C   5,C   1,C   9)   -179.5127         0.013154   
     75. D(H   4,C   5,C   1,C   3)     92.7692         0.013154   
     76. D(H   4,C   5,C   1,H   0)    -48.0321         0.013154   
     77. D(C  15,C   7,C   3,C  11)    -19.5006         0.013154   
     78. D(C  15,C   7,C   3,C   1)     68.2175         0.013154   
     79. D(C  15,C   7,C   3,H   2)   -150.9812         0.013154   
     80. D(H   6,C   7,C   3,C  11)    179.5127         0.013154   
     81. D(H   6,C   7,C   3,H   2)     48.0321         0.013154   
     82. D(H   6,C   7,C   3,C   1)    -92.7692         0.013154   
     83. D(C  11,C   9,C   1,C   3)      0.0000         0.008429   
     84. D(C  13,C   9,C   1,H   0)   -147.8694         0.008429   
     85. D(C  13,C   9,C   1,C   5)    -18.5872         0.008429   
     86. D(C  13,C   9,C   1,C   3)     91.4345         0.008429   
     87. D(C  11,C   9,C   1,H   0)    120.6961         0.008429   
     88. D(H   8,C   9,C   1,C   5)    110.3553         0.008429   
     89. D(H   8,C   9,C   1,H   0)    -18.9269         0.008429   
     90. D(C  11,C   9,C   1,C   5)   -110.0216         0.008429   
     91. D(H   8,C   9,C   1,C   3)   -139.6230         0.008429   
     92. D(C   9,C  11,C   3,C   1)      0.0000         0.008429   
     93. D(C  15,C  11,C   9,C  13)      0.0000         0.010362   
     94. D(C  15,C  11,C   9,C   1)     85.8632         0.010362   
     95. D(H  10,C  11,C   9,C  13)    137.0684         0.010362   
     96. D(H  10,C  11,C   9,H   8)      0.0000         0.010362   
     97. D(H  10,C  11,C   3,H   2)     18.9269         0.008429   
     98. D(C   3,C  11,C   9,C   1)     -0.0000         0.010362   
     99. D(C  15,C  11,C   3,H   2)    147.8694         0.008429   
    100. D(C  15,C  11,C   3,C   1)    -91.4345         0.008429   
    101. D(H  10,C  11,C   3,C   7)   -110.3553         0.008429   
    102. D(C  15,C  11,C   3,C   7)     18.5872         0.008429   
    103. D(C   3,C  11,C   9,C  13)    -85.8632         0.010362   
    104. D(H  10,C  11,C   3,C   1)    139.6230         0.008429   
    105. D(H  10,C  11,C   9,C   1)   -137.0684         0.010362   
    106. D(C   9,C  11,C   3,C   7)    110.0216         0.008429   
    107. D(C  15,C  11,C   9,H   8)   -137.0684         0.010362   
    108. D(C   9,C  11,C   3,H   2)   -120.6961         0.008429   
    109. D(C   3,C  11,C   9,H   8)    137.0684         0.010362   
    110. D(C  15,C  13,C   9,H   8)    139.6230         0.008429   
    111. D(C  15,C  13,C   9,C   1)    -91.4345         0.008429   
    112. D(H  12,C  13,C   9,C  11)   -120.6961         0.008429   
    113. D(H  12,C  13,C   9,C   1)    147.8694         0.008429   
    114. D(C   5,C  13,C   9,C  11)    110.0216         0.008429   
    115. D(C   5,C  13,C   9,H   8)   -110.3553         0.008429   
    116. D(C   5,C  13,C   9,C   1)     18.5872         0.008429   
    117. D(C  15,C  13,C   5,H   4)    -92.7692         0.013154   
    118. D(C  15,C  13,C   5,C   1)     68.2175         0.013154   
    119. D(H  12,C  13,C   9,H   8)     18.9269         0.008429   
    120. D(H  12,C  13,C   5,H   4)     48.0321         0.013154   
    121. D(H  12,C  13,C   5,C   1)   -150.9812         0.013154   
    122. D(C   9,C  13,C   5,H   4)    179.5127         0.013154   
    123. D(C  15,C  13,C   9,C  11)      0.0000         0.008429   
    124. D(C   9,C  13,C   5,C   1)    -19.5006         0.013154   
    125. D(H  14,C  15,C  13,C   9)   -128.7503         0.006037   
    126. D(H  14,C  15,C  13,C   5)    143.6849         0.006037   
    127. D(C  11,C  15,C  13,H  12)    128.7503         0.006037   
    128. D(C  11,C  15,C  13,C   9)      0.0000         0.006037   
    129. D(C  11,C  15,C  13,C   5)    -87.5648         0.006037   
    130. D(C   7,C  15,C  13,H  12)   -143.6849         0.006037   
    131. D(C   7,C  15,C  13,C   9)     87.5648         0.006037   
    132. D(H  14,C  15,C  11,H  10)    -18.9269         0.008429   
    133. D(H  14,C  15,C  11,C   9)    120.6961         0.008429   
    134. D(H  14,C  15,C  11,C   3)   -147.8694         0.008429   
    135. D(C  13,C  15,C  11,H  10)   -139.6230         0.008429   
    136. D(C  13,C  15,C  11,C   9)      0.0000         0.008429   
    137. D(C  13,C  15,C  11,C   3)     91.4345         0.008429   
    138. D(C   7,C  15,C  11,H  10)    110.3553         0.008429   
    139. D(C   7,C  15,C  13,C   5)      0.0000         0.006037   
    140. D(C   7,C  15,C  11,C   9)   -110.0216         0.008429   
    141. D(C   7,C  15,C  11,C   3)    -18.5872         0.008429   
    142. D(H  14,C  15,C   7,H   6)    -48.0321         0.013154   
    143. D(H  14,C  15,C   7,C   3)    150.9812         0.013154   
    144. D(C  13,C  15,C   7,H   6)     92.7692         0.013154   
    145. D(C  13,C  15,C   7,C   3)    -68.2175         0.013154   
    146. D(C  11,C  15,C   7,H   6)   -179.5127         0.013154   
    147. D(H  14,C  15,C  13,H  12)      0.0000         0.006037   
    148. D(C  11,C  15,C   7,C   3)     19.5006         0.013154   
    -----------------------------------------------------------------

Number of atoms                         .... 16
Number of degrees of freedom            .... 148

         *************************************************************
         *                GEOMETRY OPTIMIZATION CYCLE   1            *
         *************************************************************
---------------------------------
CARTESIAN COORDINATES (ANGSTROEM)
---------------------------------
  H      2.047515    1.283057   -0.013233
  C      1.070000    0.812587    0.058229
  H      2.047515   -1.283057   -0.013233
  C      1.070000   -0.812587    0.058229
  H      0.000000    1.610201    2.015153
  C      0.000000    1.323433    0.971979
  H      0.000000   -1.610201    2.015153
  C      0.000000   -1.323433    0.971979
  H      0.000000    1.438346   -1.946750
  C      0.000000    0.770286   -1.091956
  H      0.000000   -1.438346   -1.946750
  C      0.000000   -0.770286   -1.091956
  H     -2.047515    1.283057   -0.013233
  C     -1.070000    0.812587    0.058229
  H     -2.047515   -1.283057   -0.013233
  C     -1.070000   -0.812587    0.058229

----------------------------
CARTESIAN COORDINATES (A.U.)
----------------------------
  NO LB      ZA    FRAG    MASS        X           Y           Z
   0 H     1.0000    0     1.008          3.869243360986225          2.424626306416077         -0.025007429760945
   1 C     6.0000    0    12.011          2.022007492419057          1.535567475799769          0.110036954009051
   2 H     1.0000    0     1.008          3.869243360986225         -2.424626306416077         -0.025007429760945
   3 C     6.0000    0    12.011          2.022007492419057         -1.535567475799769          0.110036954009051
   4 H     1.0000    0     1.008          0.000000000000000          3.042839553073019          3.808086698605354
   5 C     6.0000    0    12.011          0.000000000000000          2.500925095114305          1.836773566372709
   6 H     1.0000    0     1.008          0.000000000000000         -3.042839553073019          3.808086698605354
   7 C     6.0000    0    12.011          0.000000000000000         -2.500925095114305          1.836773566372709
   8 H     1.0000    0     1.008          0.000000000000000          2.718079874643006         -3.678823617747361
   9 C     6.0000    0    12.011          0.000000000000000          1.455629187951177         -2.063498228458482
  10 H     1.0000    0     1.008          0.000000000000000         -2.718079874643006         -3.678823617747361
  11 C     6.0000    0    12.011          0.000000000000000         -1.455629187951177         -2.063498228458482
  12 H     1.0000    0     1.008         -3.869243360986225          2.424626306416077         -0.025007429760945
  13 C     6.0000    0    12.011         -2.022007492419057          1.535567475799769          0.110036954009051
  14 H     1.0000    0     1.008         -3.869243360986225         -2.424626306416077         -0.025007429760945
  15 C     6.0000    0    12.011         -2.022007492419057         -1.535567475799769          0.110036954009051

--------------------------------
INTERNAL COORDINATES (ANGSTROEM)
--------------------------------
 H      0   0   0   0.000000     0.000     0.000
 C      1   0   0   1.087191     0.000     0.000
 H      2   1   0   2.313518    90.576     0.000
 C      3   2   1   1.087191    39.293   180.000
 H      2   1   3   2.368679   108.345   123.552
 C      5   2   1   1.081873    27.641   138.568
 H      4   3   2   2.368679   108.345   236.448
 C      7   4   3   1.081873    27.641   221.432
 H      2   1   3   2.357205   103.730   245.140
 C      9   2   1   1.084885    33.525   164.156
 H      4   3   2   2.357205   103.730   114.860
 C     11   4   3   1.084885    33.525   195.844
 H      6   5   2   2.272574   115.007   173.024
 C     13   6   5   1.087191    33.810   217.033
 H      8   7   4   2.272574   115.007   186.976
 C     15   8   7   1.087191    33.810   142.967

---------------------------
INTERNAL COORDINATES (A.U.)
---------------------------
 H      0   0   0   0.000000     0.000     0.000
 C      1   0   0   2.054493     0.000     0.000
 H      2   1   0   4.371916    90.576     0.000
 C      3   2   1   2.054493    39.293   180.000
 H      2   1   3   4.476154   108.345   123.552
 C      5   2   1   2.044443    27.641   138.568
 H      4   3   2   4.476154   108.345   236.448
 C      7   4   3   2.044443    27.641   221.432
 H      2   1   3   4.454471   103.730   245.140
 C      9   2   1   2.050136    33.525   164.156
 H      4   3   2   4.454471   103.730   114.860
 C     11   4   3   2.050136    33.525   195.844
 H      6   5   2   4.294542   115.007   173.024
 C     13   6   5   2.054493    33.810   217.033
 H      8   7   4   4.294542   115.007   186.976
 C     15   8   7   2.054493    33.810   142.967

---------------------
BASIS SET INFORMATION
---------------------
There are 2 groups of distinct atoms

 Group   1 Type H   : 7s3p2d1f contracted to 4s3p2d1f pattern {4111/111/11/1}
 Group   2 Type C   : 15s8p3d2f1g contracted to 7s4p3d2f1g pattern {8211111/5111/111/11/1}

Atom   0H    basis set group =>   1
Atom   1C    basis set group =>   2
Atom   2H    basis set group =>   1
Atom   3C    basis set group =>   2
Atom   4H    basis set group =>   1
Atom   5C    basis set group =>   2
Atom   6H    basis set group =>   1
Atom   7C    basis set group =>   2
Atom   8H    basis set group =>   1
Atom   9C    basis set group =>   2
Atom  10H    basis set group =>   1
Atom  11C    basis set group =>   2
Atom  12H    basis set group =>   1
Atom  13C    basis set group =>   2
Atom  14H    basis set group =>   1
Atom  15C    basis set group =>   2


           ************************************************************
           *        Program running with 4 parallel MPI-processes     *
           *              working on a common directory               *
           ************************************************************
------------------------------------------------------------------------------
                           ORCA GTO INTEGRAL CALCULATION
------------------------------------------------------------------------------

                         BASIS SET STATISTICS AND STARTUP INFO

 # of primitive gaussian shells          ...  336
 # of primitive gaussian functions       ...  880
 # of contracted shell                   ...  216
 # of contracted basis functions         ...  696
 Highest angular momentum                ...    4
 Maximum contraction depth               ...    8
 Integral package used                   ... LIBINT
 Integral threshhold            Thresh   ...  2.500e-11
 Primitive cut-off              TCut     ...  2.500e-12


                              INTEGRAL EVALUATION

 One electron integrals                  ... done
 Pre-screening matrix                    ... done
 Shell pair data                         ... done (   0.005 sec)

           ************************************************************
           *              Shut down parallel processing               *
           ************************************************************


           ************************************************************
           *        Program running with 4 parallel MPI-processes     *
           *              working on a common directory               *
           ************************************************************
-------------------------------------------------------------------------------
                                 ORCA SCF
-------------------------------------------------------------------------------

------------
SCF SETTINGS
------------
Hamiltonian:
 Density Functional     Method          .... DFT(GTOs)
 Exchange Functional    Exchange        .... B88
   X-Alpha parameter    XAlpha          ....  0.666667
   Becke's b parameter  XBeta           ....  0.004200
 Correlation Functional Correlation     .... LYP
 LDA part of GGA corr.  LDAOpt          .... VWN-5
 Gradients option       PostSCFGGA      .... off
 Hybrid DFT is turned on
   Fraction HF Exchange ScalHFX         ....  0.200000
   Scaling of DF-GGA-X  ScalDFX         ....  0.720000
   Scaling of DF-GGA-C  ScalDFC         ....  0.810000
   Scaling of DF-LDA-C  ScalLDAC        ....  1.000000
   Perturbative correction              ....  0.000000
   NL short-range parameter             ....  4.800000


General Settings:
 Integral files         IntName         .... /home/vladimir/git/private/ORCA/C8H8/T-cubane-1/optimize/DFT/B3LYP/QZVP/./cubane
 Hartree-Fock type      HFTyp           .... UHF
 Total Charge           Charge          ....    0
 Multiplicity           Mult            ....    3
 Number of Electrons    NEL             ....   56
 Basis Dimension        Dim             ....  696
 Nuclear Repulsion      ENuc            ....    359.0654270499 Eh

 Symmetry handling      UseSym         .... ON
 Point group                           .... C2v
 Used point group                      .... C2v
 Number of irreps                      .... 4
   Irrep   A1 has  201 symmetry adapted basis functions (ofs=   0)
   Irrep   A2 has  147 symmetry adapted basis functions (ofs= 201)
   Irrep   B1 has  147 symmetry adapted basis functions (ofs= 348)
   Irrep   B2 has  201 symmetry adapted basis functions (ofs= 495)

Convergence Acceleration:
 DIIS                   CNVDIIS         .... on
   Start iteration      DIISMaxIt       ....    12
   Startup error        DIISStart       ....  0.200000
   # of expansion vecs  DIISMaxEq       ....     5
   Bias factor          DIISBfac        ....   1.050
   Max. coefficient     DIISMaxC        ....  10.000
 Newton-Raphson         CNVNR           .... off
 SOSCF                  CNVSOSCF        .... off
 Level Shifting         CNVShift        .... on
   Level shift para.    LevelShift      ....    0.2500
   Turn off err/grad.   ShiftErr        ....    0.0010
 Zerner damping         CNVZerner       .... off
 Static damping         CNVDamp         .... on
   Fraction old density DampFac         ....    0.7000
   Max. Damping (<1)    DampMax         ....    0.9800
   Min. Damping (>=0)   DampMin         ....    0.0000
   Turn off err/grad.   DampErr         ....    0.1000
 Fernandez-Rico         CNVRico         .... off

SCF Procedure:
 Maximum # iterations   MaxIter         ....   125
 SCF integral mode      SCFMode         .... Direct
   Integral package                     .... LIBINT
 Reset frequeny         DirectResetFreq ....    20
 Integral Threshold     Thresh          ....  2.500e-11 Eh
 Primitive CutOff       TCut            ....  2.500e-12 Eh

Convergence Tolerance:
 Convergence Check Mode ConvCheckMode   .... Total+1el-Energy
 Energy Change          TolE            ....  1.000e-08 Eh
 1-El. energy change                    ....  1.000e-05 Eh
 DIIS Error             TolErr          ....  5.000e-07


Diagonalization of the overlap matrix:
Smallest eigenvalue                        ... 7.930e-06
Time for diagonalization                   ...    0.099 sec
Threshold for overlap eigenvalues          ... 1.000e-08
Number of eigenvalues below threshold      ... 0
Time for construction of square roots      ...    0.047 sec
Producing symmetrization matrix            ... done (   0.041 sec)
Total time needed                          ...    0.188 sec

-------------------
DFT GRID GENERATION
-------------------

General Integration Accuracy     IntAcc      ...  4.340
Radial Grid Type                 RadialGrid  ... Gauss-Chebyshev
Angular Grid (max. acc.)         AngularGrid ... Lebedev-110
Angular grid pruning method      GridPruning ... 3 (G Style)
Weight generation scheme         WeightScheme... Becke
Basis function cutoff            BFCut       ...    1.0000e-11
Integration weight cutoff        WCut        ...    1.0000e-14
Grids for H and He will be reduced by one unit

# of grid points (after initial pruning)     ...  19600 (   0.0 sec)
# of grid points (after weights+screening)   ...  17856 (   0.0 sec)
nearest neighbour list constructed           ...    0.0 sec
Grid point re-assignment to atoms done       ...    0.0 sec
Grid point division into batches done        ...    0.0 sec
Reduced shell lists constructed in    0.1 sec

Total number of grid points                  ...    17856
Total number of batches                      ...      290
Average number of points per batch           ...       61
Average number of grid points per atom       ...     1116
Average number of shells per batch           ...   142.84 (66.13%)
Average number of basis functions per batch  ...   479.62 (68.91%)
Average number of large shells per batch     ...   111.66 (78.17%)
Average number of large basis fcns per batch ...   367.28 (76.58%)
Maximum spatial batch extension              ...  20.15, 16.72, 22.36 au
Average spatial batch extension              ...   0.96,  0.96,  0.99 au

Time for grid setup =    0.110 sec

------------------------------
INITIAL GUESS: MODEL POTENTIAL
------------------------------
Loading Hartree-Fock densities                     ... done
Calculating cut-offs                               ... done
Setting up the integral package                    ... done
Initializing the effective Hamiltonian             ... done
Starting the Coulomb interaction                   ... done (   0.2 sec)
Reading the grid                                   ... done
Mapping shells                                     ... done
Starting the XC term evaluation                    ... done (   0.8 sec)
  promolecular density results
     # of electrons  =     56.005607050
     EX              =    -43.490178587
     EC              =     -1.858203466
     EX+EC           =    -45.348382052
done (   0.0 sec)
Diagonalizing the Hamiltonian                      ... done (   0.0 sec)
Back transforming the eigenvectors                 ... done (   0.0 sec)
Now organizing SCF variables                       ... done
The symmetry of the initial guess is 3-B2
Irrep occupations for operator 0
    A1 -   11
    A2 -    4
    B1 -    5
    B2 -    9
Irrep occupations for operator 1
    A1 -   10
    A2 -    4
    B1 -    5
    B2 -    8
                      ------------------
                      INITIAL GUESS DONE (   1.2 sec)
                      ------------------
--------------
SCF ITERATIONS
--------------
ITER       Energy         Delta-E        Max-DP      RMS-DP      [F,P]     Damp
               ***  Starting incremental Fock matrix formation  ***
  0   -309.1360222780   0.000000000000 0.12738302  0.00082532  0.1243222 0.7000
  1   -309.2026617215  -0.066639443498 0.01737458  0.00011697  0.0413865 0.7000
                               ***Turning on DIIS***
  2   -309.2383241070  -0.035662385516 0.06175727  0.00038491  0.0203946 0.0000
  3   -309.3168937350  -0.078569627990 0.01730227  0.00012219  0.0110199 0.0000
  4   -309.3178852006  -0.000991465558 0.00282287  0.00002526  0.0066454 0.0000
  5   -309.3182799107  -0.000394710140 0.00099276  0.00000938  0.0010506 0.0000
  6   -309.3183063439  -0.000026433154 0.00052825  0.00000472  0.0004119 0.0000
  7   -309.3183101301  -0.000003786259 0.00017792  0.00000121  0.0002940 0.0000
  8   -309.3183113082  -0.000001178112 0.00011271  0.00000086  0.0000536 0.0000
  9   -309.3183115408  -0.000000232539 0.00004349  0.00000030  0.0000257 0.0000
 10   -309.3183115908  -0.000000050021 0.00001639  0.00000013  0.0000187 0.0000
 11   -309.3183115932  -0.000000002393 0.00001176  0.00000010  0.0000055 0.0000
 12   -309.3183116000  -0.000000006757 0.00000587  0.00000005  0.0000015 0.0000
                            ***DIIS convergence achieved***

               *****************************************************
               *                     SUCCESS                       *
               *           SCF CONVERGED AFTER  13 CYCLES          *
               *****************************************************

Setting up the final grid:

General Integration Accuracy     IntAcc      ...  4.670
Radial Grid Type                 RadialGrid  ... Gauss-Chebyshev
Angular Grid (max. acc.)         AngularGrid ... Lebedev-302
Angular grid pruning method      GridPruning ... 3 (G Style)
Weight generation scheme         WeightScheme... Becke
Basis function cutoff            BFCut       ...    1.0000e-11
Integration weight cutoff        WCut        ...    1.0000e-14
Grids for H and He will be reduced by one unit

# of grid points (after initial pruning)     ...  76848 (   0.0 sec)
# of grid points (after weights+screening)   ...  68926 (   0.0 sec)
nearest neighbour list constructed           ...    0.0 sec
Grid point re-assignment to atoms done       ...    0.0 sec
Grid point division into batches done        ...    0.2 sec
Reduced shell lists constructed in    0.5 sec

Total number of grid points                  ...    68926
Total number of batches                      ...     1086
Average number of points per batch           ...       63
Average number of grid points per atom       ...     4308
Average number of shells per batch           ...   130.30 (60.32%)
Average number of basis functions per batch  ...   435.12 (62.52%)
Average number of large shells per batch     ...   100.77 (77.34%)
Average number of large basis fcns per batch ...   327.92 (75.36%)
Maximum spatial batch extension              ...  19.82, 21.17, 18.48 au
Average spatial batch extension              ...   0.64,  0.62,  0.63 au

Final grid set up in    0.6 sec
Final integration                            ... done (   4.7 sec)
Change in XC energy                          ...    -0.000034567
Integrated number of electrons               ...    55.999927409
Previous integrated no of electrons          ...    55.999396471

----------------
TOTAL SCF ENERGY
----------------

Total Energy       :         -309.31834616 Eh           -8416.98011 eV

Components:
Nuclear Repulsion  :          359.06542705 Eh            9770.66700 eV
Electronic Energy  :         -668.38377321 Eh          -18187.64711 eV

One Electron Energy:        -1127.99689629 Eh          -30694.35602 eV
Two Electron Energy:          459.61312308 Eh           12506.70891 eV

Virial components:
Potential Energy   :         -617.23840364 Eh          -16795.91085 eV
Kinetic Energy     :          307.92005748 Eh            8378.93074 eV
Virial Ratio       :            2.00454108


DFT components:
N(Alpha)           :       28.999942763174 electrons
N(Beta)            :       26.999984646184 electrons
N(Total)           :       55.999927409358 electrons
E(X)               :      -35.175276996513 Eh       
E(C)               :       -2.184066360949 Eh       
E(XC)              :      -37.359343357462 Eh       

---------------
SCF CONVERGENCE
---------------

  Last Energy change         ...    7.8330e-09  Tolerance :   1.0000e-08
  Last MAX-Density change    ...    2.4881e-06  Tolerance :   1.0000e-07
  Last RMS-Density change    ...    2.2235e-08  Tolerance :   5.0000e-09
  Last DIIS Error            ...    9.3677e-07  Tolerance :   5.0000e-07

             **** THE GBW FILE WAS UPDATED (/home/vladimir/git/private/ORCA/C8H8/T-cubane-1/optimize/DFT/B3LYP/QZVP/./cubane.gbw) ****
             **** DENSITY FILE WAS UPDATED (/home/vladimir/git/private/ORCA/C8H8/T-cubane-1/optimize/DFT/B3LYP/QZVP/./cubane.scfp.tmp) ****
             **** ENERGY FILE WAS UPDATED (/home/vladimir/git/private/ORCA/C8H8/T-cubane-1/optimize/DFT/B3LYP/QZVP/./cubane.en.tmp) ****
----------------------
UHF SPIN CONTAMINATION
----------------------

Warning: in a DFT calculation there is little theoretical justification to 
         calculate <S**2> as in Hartree-Fock theory. We will do it anyways
         but you should keep in mind that the values have only limited relevance

Expectation value of <S**2>     :     2.007127
Ideal value S*(S+1) for S=1.0   :     2.000000
Deviation                       :     0.007127

----------------
ORBITAL ENERGIES
----------------
                 SPIN UP ORBITALS
  NO   OCC          E(Eh)            E(eV)    Irrep 
   0   1.0000     -10.181229      -277.0453    1-A1
   1   1.0000     -10.181212      -277.0449    1-B1
   2   1.0000     -10.181098      -277.0418    1-B2
   3   1.0000     -10.181077      -277.0412    1-A2
   4   1.0000     -10.178619      -276.9743    2-B2
   5   1.0000     -10.178619      -276.9743    2-A1
   6   1.0000     -10.175878      -276.8997    3-A1
   7   1.0000     -10.175668      -276.8940    3-B2
   8   1.0000      -0.928812       -25.2743    4-A1
   9   1.0000      -0.785156       -21.3652    4-B2
  10   1.0000      -0.713084       -19.4040    2-B1
  11   1.0000      -0.696888       -18.9633    5-A1
  12   1.0000      -0.585336       -15.9278    5-B2
  13   1.0000      -0.578397       -15.7390    2-A2
  14   1.0000      -0.559001       -15.2112    6-A1
  15   1.0000      -0.529847       -14.4179    7-A1
  16   1.0000      -0.477201       -12.9853    6-B2
  17   1.0000      -0.467226       -12.7139    8-A1
  18   1.0000      -0.454198       -12.3594    7-B2
  19   1.0000      -0.428430       -11.6582    3-B1
  20   1.0000      -0.394314       -10.7298    9-A1
  21   1.0000      -0.382413       -10.4060    4-B1
  22   1.0000      -0.322034        -8.7630    3-A2
  23   1.0000      -0.314503        -8.5581    5-B1
  24   1.0000      -0.288373        -7.8470    8-B2
  25   1.0000      -0.288191        -7.8421   10-A1
  26   1.0000      -0.266419        -7.2496    4-A2
  27   1.0000      -0.214297        -5.8313    9-B2
  28   1.0000      -0.171187        -4.6582   11-A1
  29   0.0000       0.026429         0.7192   12-A1
  30   0.0000       0.030089         0.8188   13-A1
  31   0.0000       0.034941         0.9508    6-B1
  32   0.0000       0.053761         1.4629   10-B2
  33   0.0000       0.066563         1.8113   14-A1
  34   0.0000       0.071382         1.9424    5-A2
  35   0.0000       0.073872         2.0102   11-B2
  36   0.0000       0.088479         2.4076   15-A1
  37   0.0000       0.092989         2.5304    7-B1
  38   0.0000       0.101538         2.7630   12-B2
  39   0.0000       0.117270         3.1911   16-A1
  40   0.0000       0.120731         3.2853    8-B1
  41   0.0000       0.131666         3.5828   13-B2
  42   0.0000       0.155780         4.2390   17-A1
  43   0.0000       0.157664         4.2903   14-B2
  44   0.0000       0.158969         4.3258    6-A2
  45   0.0000       0.166525         4.5314    9-B1
  46   0.0000       0.169508         4.6126    7-A2
  47   0.0000       0.177142         4.8203   10-B1
  48   0.0000       0.183426         4.9913   15-B2
  49   0.0000       0.185921         5.0592   18-A1
  50   0.0000       0.186063         5.0630    8-A2
  51   0.0000       0.214683         5.8418   19-A1
  52   0.0000       0.226069         6.1517   20-A1
  53   0.0000       0.244156         6.6438   11-B1
  54   0.0000       0.254098         6.9143   16-B2
  55   0.0000       0.262714         7.1488   21-A1
  56   0.0000       0.266296         7.2463   17-B2
  57   0.0000       0.271035         7.3752    9-A2
  58   0.0000       0.282566         7.6890   22-A1
  59   0.0000       0.295036         8.0283   18-B2
  60   0.0000       0.297195         8.0871   10-A2
  61   0.0000       0.305922         8.3246   19-B2
  62   0.0000       0.308909         8.4058   23-A1
  63   0.0000       0.310207         8.4412   12-B1
  64   0.0000       0.317906         8.6507   13-B1
  65   0.0000       0.321310         8.7433   24-A1
  66   0.0000       0.325674         8.8620   20-B2
  67   0.0000       0.328098         8.9280   21-B2
  68   0.0000       0.328788         8.9468   11-A2
  69   0.0000       0.339908         9.2494   25-A1
  70   0.0000       0.339957         9.2507   22-B2
  71   0.0000       0.351734         9.5712   14-B1
  72   0.0000       0.354705         9.6520   12-A2
  73   0.0000       0.384793        10.4708   23-B2
  74   0.0000       0.387720        10.5504   13-A2
  75   0.0000       0.392120        10.6701   15-B1
  76   0.0000       0.402708        10.9583   26-A1
  77   0.0000       0.404952        11.0193   24-B2
  78   0.0000       0.448252        12.1975   27-A1
  79   0.0000       0.461305        12.5527   25-B2
  80   0.0000       0.472822        12.8661   14-A2
  81   0.0000       0.497786        13.5455   26-B2
  82   0.0000       0.506752        13.7894   28-A1
  83   0.0000       0.529729        14.4147   16-B1
  84   0.0000       0.534855        14.5541   15-A2
  85   0.0000       0.536401        14.5962   27-B2
  86   0.0000       0.552267        15.0280   29-A1
  87   0.0000       0.562562        15.3081   30-A1
  88   0.0000       0.585661        15.9366   17-B1
  89   0.0000       0.594638        16.1809   31-A1
  90   0.0000       0.608749        16.5649   28-B2
  91   0.0000       0.616011        16.7625   18-B1
  92   0.0000       0.627117        17.0647   19-B1
  93   0.0000       0.633668        17.2430   32-A1
  94   0.0000       0.644256        17.5311   29-B2
  95   0.0000       0.646485        17.5918   16-A2
  96   0.0000       0.647837        17.6286   33-A1
  97   0.0000       0.649633        17.6774   17-A2
  98   0.0000       0.697621        18.9832   30-B2
  99   0.0000       0.699852        19.0439   34-A1
 100   0.0000       0.719485        19.5782   35-A1
 101   0.0000       0.728129        19.8134   31-B2
 102   0.0000       0.735561        20.0156   18-A2
 103   0.0000       0.736549        20.0425   20-B1
 104   0.0000       0.736800        20.0494   32-B2
 105   0.0000       0.765704        20.8359   21-B1
 106   0.0000       0.769255        20.9325   36-A1
 107   0.0000       0.772504        21.0209   33-B2
 108   0.0000       0.788757        21.4632   37-A1
 109   0.0000       0.798531        21.7291   38-A1
 110   0.0000       0.805305        21.9135   19-A2
 111   0.0000       0.813821        22.1452   34-B2
 112   0.0000       0.825685        22.4680   22-B1
 113   0.0000       0.835091        22.7240   39-A1
 114   0.0000       0.835531        22.7360   23-B1
 115   0.0000       0.835597        22.7377   35-B2
 116   0.0000       0.849819        23.1248   20-A2
 117   0.0000       0.866855        23.5883   21-A2
 118   0.0000       0.872947        23.7541   24-B1
 119   0.0000       0.874896        23.8071   36-B2
 120   0.0000       0.888676        24.1821   40-A1
 121   0.0000       0.894488        24.3402   25-B1
 122   0.0000       0.895695        24.3731   22-A2
 123   0.0000       0.901224        24.5235   41-A1
 124   0.0000       0.907735        24.7007   37-B2
 125   0.0000       0.911256        24.7965   26-B1
 126   0.0000       0.947007        25.7694   38-B2
 127   0.0000       0.959289        26.1036   42-A1
 128   0.0000       0.979230        26.6462   23-A2
 129   0.0000       0.980049        26.6685   43-A1
 130   0.0000       0.995921        27.1004   24-A2
 131   0.0000       0.996723        27.1222   39-B2
 132   0.0000       1.002370        27.2759   44-A1
 133   0.0000       1.033091        28.1118   27-B1
 134   0.0000       1.034510        28.1504   40-B2
 135   0.0000       1.056980        28.7619   28-B1
 136   0.0000       1.061988        28.8982   41-B2
 137   0.0000       1.071901        29.1679   45-A1
 138   0.0000       1.094186        29.7743   46-A1
 139   0.0000       1.098411        29.8893   42-B2
 140   0.0000       1.106095        30.0984   29-B1
 141   0.0000       1.110964        30.2309   25-A2
 142   0.0000       1.134489        30.8710   47-A1
 143   0.0000       1.139363        31.0036   43-B2
 144   0.0000       1.162577        31.6353   48-A1
 145   0.0000       1.166757        31.7491   26-A2
 146   0.0000       1.177364        32.0377   44-B2
 147   0.0000       1.187155        32.3041   30-B1
 148   0.0000       1.217047        33.1175   49-A1
 149   0.0000       1.218563        33.1588   27-A2
 150   0.0000       1.229154        33.4470   45-B2
 151   0.0000       1.243793        33.8453   50-A1
 152   0.0000       1.252571        34.0842   28-A2
 153   0.0000       1.256786        34.1989   31-B1
 154   0.0000       1.277011        34.7492   29-A2
 155   0.0000       1.282083        34.8872   51-A1
 156   0.0000       1.284105        34.9423   46-B2
 157   0.0000       1.310326        35.6558   52-A1
 158   0.0000       1.326947        36.1081   47-B2
 159   0.0000       1.330894        36.2155   32-B1
 160   0.0000       1.383578        37.6491   48-B2
 161   0.0000       1.403083        38.1798   49-B2
 162   0.0000       1.403267        38.1848   30-A2
 163   0.0000       1.414979        38.5035   53-A1
 164   0.0000       1.422859        38.7180   31-A2
 165   0.0000       1.441580        39.2274   50-B2
 166   0.0000       1.449842        39.4522   54-A1
 167   0.0000       1.482473        40.3401   51-B2
 168   0.0000       1.483659        40.3724   33-B1
 169   0.0000       1.516751        41.2729   32-A2
 170   0.0000       1.525760        41.5180   52-B2
 171   0.0000       1.558054        42.3968   34-B1
 172   0.0000       1.562306        42.5125   53-B2
 173   0.0000       1.563997        42.5585   55-A1
 174   0.0000       1.582718        43.0680   35-B1
 175   0.0000       1.593524        43.3620   56-A1
 176   0.0000       1.634987        44.4903   57-A1
 177   0.0000       1.649075        44.8736   36-B1
 178   0.0000       1.658747        45.1368   54-B2
 179   0.0000       1.665454        45.3193   33-A2
 180   0.0000       1.681001        45.7424   58-A1
 181   0.0000       1.690425        45.9988   34-A2
 182   0.0000       1.703703        46.3601   37-B1
 183   0.0000       1.728825        47.0437   55-B2
 184   0.0000       1.737707        47.2854   59-A1
 185   0.0000       1.744469        47.4694   35-A2
 186   0.0000       1.747248        47.5450   56-B2
 187   0.0000       1.773573        48.2614   38-B1
 188   0.0000       1.781459        48.4760   60-A1
 189   0.0000       1.813344        49.3436   39-B1
 190   0.0000       1.825782        49.6820   57-B2
 191   0.0000       1.837856        50.0106   61-A1
 192   0.0000       1.866795        50.7981   58-B2
 193   0.0000       1.875379        51.0316   36-A2
 194   0.0000       1.881349        51.1941   40-B1
 195   0.0000       1.892636        51.5012   62-A1
 196   0.0000       1.899911        51.6992   37-A2
 197   0.0000       1.906589        51.8809   63-A1
 198   0.0000       1.911931        52.0263   41-B1
 199   0.0000       1.924429        52.3664   38-A2
 200   0.0000       1.930354        52.5276   59-B2
 201   0.0000       1.945586        52.9421   64-A1
 202   0.0000       1.995517        54.3008   60-B2
 203   0.0000       1.996190        54.3191   42-B1
 204   0.0000       2.012550        54.7643   65-A1
 205   0.0000       2.032293        55.3015   39-A2
 206   0.0000       2.037889        55.4538   43-B1
 207   0.0000       2.049905        55.7808   66-A1
 208   0.0000       2.064354        56.1739   44-B1
 209   0.0000       2.067965        56.2722   61-B2
 210   0.0000       2.077566        56.5334   62-B2
 211   0.0000       2.093594        56.9696   67-A1
 212   0.0000       2.109247        57.3955   40-A2
 213   0.0000       2.122614        57.7593   63-B2
 214   0.0000       2.149591        58.4934   45-B1
 215   0.0000       2.161911        58.8286   68-A1
 216   0.0000       2.163001        58.8583   41-A2
 217   0.0000       2.163744        58.8785   64-B2
 218   0.0000       2.174302        59.1658   69-A1
 219   0.0000       2.187280        59.5189   46-B1
 220   0.0000       2.198683        59.8292   65-B2
 221   0.0000       2.227353        60.6094   70-A1
 222   0.0000       2.229513        60.6681   42-A2
 223   0.0000       2.232271        60.7432   47-B1
 224   0.0000       2.272004        61.8244   48-B1
 225   0.0000       2.274071        61.8806   43-A2
 226   0.0000       2.279830        62.0373   66-B2
 227   0.0000       2.286155        62.2094   71-A1
 228   0.0000       2.312559        62.9279   44-A2
 229   0.0000       2.321942        63.1832   72-A1
 230   0.0000       2.334864        63.5349   67-B2
 231   0.0000       2.345428        63.8223   45-A2
 232   0.0000       2.354819        64.0779   49-B1
 233   0.0000       2.366332        64.3912   73-A1
 234   0.0000       2.379357        64.7456   50-B1
 235   0.0000       2.384852        64.8951   74-A1
 236   0.0000       2.389026        65.0087   51-B1
 237   0.0000       2.398536        65.2675   68-B2
 238   0.0000       2.401939        65.3601   75-A1
 239   0.0000       2.419438        65.8362   46-A2
 240   0.0000       2.434857        66.2558   69-B2
 241   0.0000       2.452848        66.7454   76-A1
 242   0.0000       2.458283        66.8933   52-B1
 243   0.0000       2.463408        67.0327   70-B2
 244   0.0000       2.464592        67.0650   47-A2
 245   0.0000       2.471930        67.2646   77-A1
 246   0.0000       2.503470        68.1229   53-B1
 247   0.0000       2.510537        68.3152   71-B2
 248   0.0000       2.515487        68.4499   78-A1
 249   0.0000       2.545409        69.2641   79-A1
 250   0.0000       2.550617        69.4058   72-B2
 251   0.0000       2.566306        69.8327   73-B2
 252   0.0000       2.567507        69.8654   54-B1
 253   0.0000       2.567542        69.8664   48-A2
 254   0.0000       2.580184        70.2104   55-B1
 255   0.0000       2.592942        70.5575   80-A1
 256   0.0000       2.596620        70.6576   49-A2
 257   0.0000       2.623162        71.3799   74-B2
 258   0.0000       2.636063        71.7309   75-B2
 259   0.0000       2.639242        71.8174   50-A2
 260   0.0000       2.639832        71.8335   81-A1
 261   0.0000       2.660398        72.3931   76-B2
 262   0.0000       2.672580        72.7246   51-A2
 263   0.0000       2.678507        72.8859   77-B2
 264   0.0000       2.687436        73.1288   82-A1
 265   0.0000       2.690534        73.2132   56-B1
 266   0.0000       2.705063        73.6085   52-A2
 267   0.0000       2.708042        73.6896   83-A1
 268   0.0000       2.731031        74.3151   78-B2
 269   0.0000       2.733061        74.3704   84-A1
 270   0.0000       2.748854        74.8001   57-B1
 271   0.0000       2.752989        74.9126   85-A1
 272   0.0000       2.772033        75.4308   58-B1
 273   0.0000       2.777019        75.5665   86-A1
 274   0.0000       2.778251        75.6001   53-A2
 275   0.0000       2.791601        75.9633   79-B2
 276   0.0000       2.815218        76.6060   87-A1
 277   0.0000       2.819023        76.7095   54-A2
 278   0.0000       2.835588        77.1603   59-B1
 279   0.0000       2.854266        77.6685   80-B2
 280   0.0000       2.854438        77.6732   55-A2
 281   0.0000       2.856166        77.7202   88-A1
 282   0.0000       2.867719        78.0346   81-B2
 283   0.0000       2.890002        78.6409   60-B1
 284   0.0000       2.915200        79.3266   61-B1
 285   0.0000       2.923561        79.5541   56-A2
 286   0.0000       2.928897        79.6993   82-B2
 287   0.0000       2.934116        79.8414   89-A1
 288   0.0000       2.934169        79.8428   83-B2
 289   0.0000       2.984471        81.2116   62-B1
 290   0.0000       2.986035        81.2541   57-A2
 291   0.0000       2.992018        81.4169   90-A1
 292   0.0000       3.005185        81.7752   84-B2
 293   0.0000       3.008648        81.8695   91-A1
 294   0.0000       3.022701        82.2519   63-B1
 295   0.0000       3.049032        82.9684   58-A2
 296   0.0000       3.049867        82.9911   92-A1
 297   0.0000       3.057031        83.1860   85-B2
 298   0.0000       3.097111        84.2767   64-B1
 299   0.0000       3.112225        84.6879   86-B2
 300   0.0000       3.130999        85.1988   59-A2
 301   0.0000       3.133185        85.2583   93-A1
 302   0.0000       3.141870        85.4946   60-A2
 303   0.0000       3.160431        85.9997   87-B2
 304   0.0000       3.196969        86.9940   88-B2
 305   0.0000       3.197244        87.0014   65-B1
 306   0.0000       3.200171        87.0811   61-A2
 307   0.0000       3.210416        87.3598   94-A1
 308   0.0000       3.225418        87.7681   89-B2
 309   0.0000       3.230290        87.9007   62-A2
 310   0.0000       3.241246        88.1988   95-A1
 311   0.0000       3.249185        88.4148   66-B1
 312   0.0000       3.297039        89.7170   67-B1
 313   0.0000       3.297979        89.7426   90-B2
 314   0.0000       3.306013        89.9612   63-A2
 315   0.0000       3.317304        90.2684   96-A1
 316   0.0000       3.370645        91.7199   91-B2
 317   0.0000       3.404074        92.6296   68-B1
 318   0.0000       3.405264        92.6620   92-B2
 319   0.0000       3.429596        93.3240   97-A1
 320   0.0000       3.439272        93.5873   64-A2
 321   0.0000       3.441162        93.6388   98-A1
 322   0.0000       3.452116        93.9369   65-A2
 323   0.0000       3.456837        94.0653   69-B1
 324   0.0000       3.457866        94.0933   93-B2
 325   0.0000       3.488290        94.9212   99-A1
 326   0.0000       3.513582        95.6094   94-B2
 327   0.0000       3.565730        97.0284   66-A2
 328   0.0000       3.584295        97.5336   95-B2
 329   0.0000       3.590175        97.6936   70-B1
 330   0.0000       3.599240        97.9403   96-B2
 331   0.0000       3.609963        98.2321   71-B1
 332   0.0000       3.612297        98.2956   67-A2
 333   0.0000       3.620461        98.5177  100-A1
 334   0.0000       3.637032        98.9687   97-B2
 335   0.0000       3.649523        99.3086   68-A2
 336   0.0000       3.699904       100.6795  101-A1
 337   0.0000       3.699947       100.6807   98-B2
 338   0.0000       3.759371       102.2977   72-B1
 339   0.0000       3.767731       102.5252  102-A1
 340   0.0000       3.816832       103.8613  103-A1
 341   0.0000       3.836125       104.3863   69-A2
 342   0.0000       3.848967       104.7357   99-B2
 343   0.0000       3.864834       105.1675  104-A1
 344   0.0000       3.911822       106.4461   73-B1
 345   0.0000       3.955543       107.6358  100-B2
 346   0.0000       4.044546       110.0577  105-A1
 347   0.0000       4.047181       110.1294   70-A2
 348   0.0000       4.077508       110.9546  101-B2
 349   0.0000       4.090931       111.3199  106-A1
 350   0.0000       4.111110       111.8690   71-A2
 351   0.0000       4.156866       113.1141  107-A1
 352   0.0000       4.168357       113.4268  102-B2
 353   0.0000       4.170604       113.4879   74-B1
 354   0.0000       4.264300       116.0375   72-A2
 355   0.0000       4.342806       118.1738  103-B2
 356   0.0000       4.351959       118.4228   75-B1
 357   0.0000       4.355859       118.5289   73-A2
 358   0.0000       4.367807       118.8541  104-B2
 359   0.0000       4.377205       119.1098  108-A1
 360   0.0000       4.440275       120.8260  105-B2
 361   0.0000       4.443768       120.9211  109-A1
 362   0.0000       4.446274       120.9893   76-B1
 363   0.0000       4.454052       121.2009   74-A2
 364   0.0000       4.510591       122.7394  106-B2
 365   0.0000       4.543661       123.6393  110-A1
 366   0.0000       4.556689       123.9938  107-B2
 367   0.0000       4.578668       124.5919   75-A2
 368   0.0000       4.615363       125.5904   77-B1
 369   0.0000       4.692394       127.6865  108-B2
 370   0.0000       4.727759       128.6489  111-A1
 371   0.0000       4.733574       128.8071   78-B1
 372   0.0000       4.796312       130.5143  112-A1
 373   0.0000       4.796366       130.5158   79-B1
 374   0.0000       4.826147       131.3261   76-A2
 375   0.0000       4.859337       132.2293   77-A2
 376   0.0000       4.868281       132.4727  109-B2
 377   0.0000       4.880276       132.7991   80-B1
 378   0.0000       4.913580       133.7053  113-A1
 379   0.0000       4.962288       135.0307  114-A1
 380   0.0000       4.983988       135.6212   81-B1
 381   0.0000       4.992610       135.8558  115-A1
 382   0.0000       5.017756       136.5401  110-B2
 383   0.0000       5.027691       136.8104   82-B1
 384   0.0000       5.079697       138.2256   78-A2
 385   0.0000       5.101478       138.8183   79-A2
 386   0.0000       5.130536       139.6090  111-B2
 387   0.0000       5.194341       141.3452  112-B2
 388   0.0000       5.201828       141.5489   80-A2
 389   0.0000       5.210849       141.7944  116-A1
 390   0.0000       5.237509       142.5199   83-B1
 391   0.0000       5.289824       143.9434  113-B2
 392   0.0000       5.309897       144.4896   84-B1
 393   0.0000       5.319815       144.7595  117-A1
 394   0.0000       5.358542       145.8133  118-A1
 395   0.0000       5.363163       145.9391  114-B2
 396   0.0000       5.416918       147.4018  119-A1
 397   0.0000       5.444079       148.1409   85-B1
 398   0.0000       5.452019       148.3570   81-A2
 399   0.0000       5.452020       148.3570  115-B2
 400   0.0000       5.476283       149.0172   82-A2
 401   0.0000       5.494050       149.5007   86-B1
 402   0.0000       5.494389       149.5099  116-B2
 403   0.0000       5.511132       149.9655   87-B1
 404   0.0000       5.511274       149.9694  120-A1
 405   0.0000       5.537624       150.6864  121-A1
 406   0.0000       5.576820       151.7530  117-B2
 407   0.0000       5.605226       152.5260  122-A1
 408   0.0000       5.622737       153.0024   88-B1
 409   0.0000       5.654066       153.8550  123-A1
 410   0.0000       5.656879       153.9315   83-A2
 411   0.0000       5.669234       154.2677  118-B2
 412   0.0000       5.702795       155.1809  124-A1
 413   0.0000       5.711804       155.4261   84-A2
 414   0.0000       5.717085       155.5698   89-B1
 415   0.0000       5.741643       156.2381  125-A1
 416   0.0000       5.785069       157.4197  119-B2
 417   0.0000       5.819038       158.3441  126-A1
 418   0.0000       5.828264       158.5951   90-B1
 419   0.0000       5.845509       159.0644   85-A2
 420   0.0000       5.863542       159.5551  120-B2
 421   0.0000       5.898549       160.5077   86-A2
 422   0.0000       5.911463       160.8591   91-B1
 423   0.0000       5.927590       161.2979  127-A1
 424   0.0000       5.931004       161.3908   87-A2
 425   0.0000       5.934212       161.4781   92-B1
 426   0.0000       5.943939       161.7428  128-A1
 427   0.0000       5.954154       162.0208  121-B2
 428   0.0000       5.987596       162.9308  129-A1
 429   0.0000       6.008704       163.5051   93-B1
 430   0.0000       6.014051       163.6507  122-B2
 431   0.0000       6.020207       163.8182   88-A2
 432   0.0000       6.036816       164.2701  130-A1
 433   0.0000       6.037861       164.2985  123-B2
 434   0.0000       6.059015       164.8742   94-B1
 435   0.0000       6.067332       165.1005   89-A2
 436   0.0000       6.084937       165.5796  131-A1
 437   0.0000       6.091664       165.7626   90-A2
 438   0.0000       6.094735       165.8462  124-B2
 439   0.0000       6.096717       165.9001  132-A1
 440   0.0000       6.123990       166.6422   95-B1
 441   0.0000       6.126108       166.6999   91-A2
 442   0.0000       6.129465       166.7912   96-B1
 443   0.0000       6.131890       166.8572  133-A1
 444   0.0000       6.172523       167.9629  125-B2
 445   0.0000       6.173141       167.9797   92-A2
 446   0.0000       6.180302       168.1746  126-B2
 447   0.0000       6.185779       168.3236  127-B2
 448   0.0000       6.203204       168.7978   97-B1
 449   0.0000       6.216728       169.1658   93-A2
 450   0.0000       6.216960       169.1721  134-A1
 451   0.0000       6.225662       169.4089   98-B1
 452   0.0000       6.228816       169.4947  128-B2
 453   0.0000       6.240214       169.8049  135-A1
 454   0.0000       6.256284       170.2421   94-A2
 455   0.0000       6.267541       170.5485  129-B2
 456   0.0000       6.286308       171.0591   99-B1
 457   0.0000       6.293823       171.2636  136-A1
 458   0.0000       6.306970       171.6214  137-A1
 459   0.0000       6.331093       172.2778   95-A2
 460   0.0000       6.339906       172.5176  130-B2
 461   0.0000       6.359637       173.0545  100-B1
 462   0.0000       6.362883       173.1429  138-A1
 463   0.0000       6.373448       173.4303   96-A2
 464   0.0000       6.384933       173.7429  131-B2
 465   0.0000       6.388268       173.8336  101-B1
 466   0.0000       6.407501       174.3570  132-B2
 467   0.0000       6.423981       174.8054  102-B1
 468   0.0000       6.431424       175.0079  139-A1
 469   0.0000       6.445046       175.3786  133-B2
 470   0.0000       6.459542       175.7731   97-A2
 471   0.0000       6.466420       175.9602  134-B2
 472   0.0000       6.478727       176.2951  140-A1
 473   0.0000       6.502334       176.9375  103-B1
 474   0.0000       6.508771       177.1127  104-B1
 475   0.0000       6.512776       177.2216  141-A1
 476   0.0000       6.521480       177.4585   98-A2
 477   0.0000       6.543139       178.0479  142-A1
 478   0.0000       6.551799       178.2835  135-B2
 479   0.0000       6.557790       178.4465   99-A2
 480   0.0000       6.574797       178.9093  143-A1
 481   0.0000       6.574992       178.9146  136-B2
 482   0.0000       6.602170       179.6542  137-B2
 483   0.0000       6.623577       180.2367  100-A2
 484   0.0000       6.644376       180.8027  105-B1
 485   0.0000       6.673002       181.5816  101-A2
 486   0.0000       6.679344       181.7542  106-B1
 487   0.0000       6.693577       182.1415  144-A1
 488   0.0000       6.709078       182.5633  138-B2
 489   0.0000       6.709439       182.5731  102-A2
 490   0.0000       6.716752       182.7721  145-A1
 491   0.0000       6.728573       183.0938  107-B1
 492   0.0000       6.747422       183.6067  108-B1
 493   0.0000       6.748184       183.6274  139-B2
 494   0.0000       6.753605       183.7749  146-A1
 495   0.0000       6.761996       184.0033  140-B2
 496   0.0000       6.767520       184.1536  103-A2
 497   0.0000       6.772126       184.2789  109-B1
 498   0.0000       6.803289       185.1269  104-A2
 499   0.0000       6.809765       185.3031  141-B2
 500   0.0000       6.810554       185.3246  147-A1
 501   0.0000       6.873468       187.0366  142-B2
 502   0.0000       6.875863       187.1017  110-B1
 503   0.0000       6.913839       188.1351  148-A1
 504   0.0000       6.917068       188.2230  105-A2
 505   0.0000       6.922868       188.3808  111-B1
 506   0.0000       6.932343       188.6386  149-A1
 507   0.0000       6.941127       188.8777  106-A2
 508   0.0000       6.986800       190.1205  143-B2
 509   0.0000       6.989709       190.1997  150-A1
 510   0.0000       7.006102       190.6457  151-A1
 511   0.0000       7.014535       190.8752  107-A2
 512   0.0000       7.054003       191.9492  144-B2
 513   0.0000       7.064961       192.2474  152-A1
 514   0.0000       7.065422       192.2599  112-B1
 515   0.0000       7.079127       192.6329  145-B2
 516   0.0000       7.084229       192.7717  108-A2
 517   0.0000       7.117928       193.6887  113-B1
 518   0.0000       7.138323       194.2437  146-B2
 519   0.0000       7.177982       195.3228  147-B2
 520   0.0000       7.183910       195.4841  153-A1
 521   0.0000       7.214290       196.3108  109-A2
 522   0.0000       7.246629       197.1908  148-B2
 523   0.0000       7.260761       197.5753  114-B1
 524   0.0000       7.261379       197.5922  154-A1
 525   0.0000       7.289928       198.3690  110-A2
 526   0.0000       7.344190       199.8456  149-B2
 527   0.0000       7.349641       199.9939  155-A1
 528   0.0000       7.384039       200.9299  115-B1
 529   0.0000       7.387402       201.0214  156-A1
 530   0.0000       7.392582       201.1624  150-B2
 531   0.0000       7.402028       201.4194  111-A2
 532   0.0000       7.430322       202.1893  157-A1
 533   0.0000       7.435758       202.3373  151-B2
 534   0.0000       7.436343       202.3532  116-B1
 535   0.0000       7.488757       203.7794  112-A2
 536   0.0000       7.513653       204.4569  152-B2
 537   0.0000       7.518316       204.5838  158-A1
 538   0.0000       7.536869       205.0886  153-B2
 539   0.0000       7.568275       205.9432  154-B2
 540   0.0000       7.575059       206.1278  159-A1
 541   0.0000       7.590599       206.5507  117-B1
 542   0.0000       7.590787       206.5558  113-A2
 543   0.0000       7.618939       207.3219  118-B1
 544   0.0000       7.647076       208.0875  155-B2
 545   0.0000       7.659780       208.4332  160-A1
 546   0.0000       7.665375       208.5855  114-A2
 547   0.0000       7.704632       209.6537  156-B2
 548   0.0000       7.717266       209.9975  119-B1
 549   0.0000       7.722266       210.1335  161-A1
 550   0.0000       7.727609       210.2789  162-A1
 551   0.0000       7.734039       210.4539  157-B2
 552   0.0000       7.736552       210.5223  120-B1
 553   0.0000       7.743751       210.7182  115-A2
 554   0.0000       7.771397       211.4705  163-A1
 555   0.0000       7.794136       212.0892  116-A2
 556   0.0000       7.810646       212.5385  121-B1
 557   0.0000       7.820330       212.8020  158-B2
 558   0.0000       7.822814       212.8696  164-A1
 559   0.0000       7.835614       213.2179  122-B1
 560   0.0000       7.847351       213.5373  117-A2
 561   0.0000       7.874486       214.2756  159-B2
 562   0.0000       7.894664       214.8247  165-A1
 563   0.0000       7.902465       215.0370  123-B1
 564   0.0000       7.906774       215.1543  160-B2
 565   0.0000       7.919580       215.5027  124-B1
 566   0.0000       7.924120       215.6263  118-A2
 567   0.0000       7.943426       216.1516  166-A1
 568   0.0000       7.984662       217.2737  161-B2
 569   0.0000       7.987160       217.3417  119-A2
 570   0.0000       8.009115       217.9391  162-B2
 571   0.0000       8.031345       218.5440  167-A1
 572   0.0000       8.062505       219.3919  163-B2
 573   0.0000       8.075815       219.7541  125-B1
 574   0.0000       8.084308       219.9852  168-A1
 575   0.0000       8.089580       220.1287  120-A2
 576   0.0000       8.106494       220.5889  164-B2
 577   0.0000       8.116540       220.8623  169-A1
 578   0.0000       8.118780       220.9232  126-B1
 579   0.0000       8.136377       221.4021  170-A1
 580   0.0000       8.139030       221.4743  121-A2
 581   0.0000       8.155496       221.9223  122-A2
 582   0.0000       8.165535       222.1955  165-B2
 583   0.0000       8.191442       222.9005  127-B1
 584   0.0000       8.211480       223.4457  171-A1
 585   0.0000       8.222228       223.7382  123-A2
 586   0.0000       8.252922       224.5734  124-A2
 587   0.0000       8.262154       224.8246  166-B2
 588   0.0000       8.278043       225.2570  128-B1
 589   0.0000       8.298574       225.8157  167-B2
 590   0.0000       8.319261       226.3786  125-A2
 591   0.0000       8.321134       226.4296  172-A1
 592   0.0000       8.321433       226.4377  129-B1
 593   0.0000       8.321451       226.4382  168-B2
 594   0.0000       8.362425       227.5532  173-A1
 595   0.0000       8.422204       229.1798  130-B1
 596   0.0000       8.444960       229.7991  126-A2
 597   0.0000       8.449691       229.9278  174-A1
 598   0.0000       8.460144       230.2122  127-A2
 599   0.0000       8.501374       231.3342  128-A2
 600   0.0000       8.504502       231.4193  175-A1
 601   0.0000       8.507283       231.4949  169-B2
 602   0.0000       8.544164       232.4985  170-B2
 603   0.0000       8.553697       232.7579  171-B2
 604   0.0000       8.610172       234.2947  129-A2
 605   0.0000       8.637296       235.0328  131-B1
 606   0.0000       8.650201       235.3839  176-A1
 607   0.0000       8.654310       235.4957  132-B1
 608   0.0000       8.658816       235.6184  172-B2
 609   0.0000       8.714342       237.1293  173-B2
 610   0.0000       8.718943       237.2545  177-A1
 611   0.0000       8.719416       237.2674  130-A2
 612   0.0000       8.735919       237.7164  133-B1
 613   0.0000       8.750544       238.1144  131-A2
 614   0.0000       8.769752       238.6371  174-B2
 615   0.0000       8.820972       240.0308  134-B1
 616   0.0000       8.828253       240.2290  175-B2
 617   0.0000       8.834566       240.4008  178-A1
 618   0.0000       8.843712       240.6496  132-A2
 619   0.0000       8.877291       241.5634  179-A1
 620   0.0000       8.908602       242.4154  180-A1
 621   0.0000       8.990075       244.6324  133-A2
 622   0.0000       9.002490       244.9702  176-B2
 623   0.0000       9.017272       245.3725  135-B1
 624   0.0000       9.088234       247.3034  177-B2
 625   0.0000       9.093199       247.4385  136-B1
 626   0.0000       9.105541       247.7744  178-B2
 627   0.0000       9.122183       248.2272  181-A1
 628   0.0000       9.168890       249.4982  179-B2
 629   0.0000       9.170070       249.5303  134-A2
 630   0.0000       9.176732       249.7116  137-B1
 631   0.0000       9.210703       250.6360  182-A1
 632   0.0000       9.216427       250.7917  135-A2
 633   0.0000       9.304279       253.1823  136-A2
 634   0.0000       9.337091       254.0752  138-B1
 635   0.0000       9.338681       254.1184  180-B2
 636   0.0000       9.349460       254.4117  183-A1
 637   0.0000       9.367151       254.8931  181-B2
 638   0.0000       9.387069       255.4351  137-A2
 639   0.0000       9.478848       257.9326  184-A1
 640   0.0000       9.532209       259.3846  182-B2
 641   0.0000       9.573105       260.4974  138-A2
 642   0.0000       9.589348       260.9394  185-A1
 643   0.0000       9.591970       261.0108  183-B2
 644   0.0000       9.648880       262.5594  184-B2
 645   0.0000       9.672197       263.1939  139-B1
 646   0.0000       9.758638       265.5460  140-B1
 647   0.0000       9.769242       265.8346  139-A2
 648   0.0000       9.784964       266.2624  186-A1
 649   0.0000       9.824049       267.3260  185-B2
 650   0.0000       9.829456       267.4731  187-A1
 651   0.0000       9.933999       270.3179  141-B1
 652   0.0000       9.974978       271.4330  188-A1
 653   0.0000      10.004519       272.2368  186-B2
 654   0.0000      10.012845       272.4634  189-A1
 655   0.0000      10.014376       272.5050  140-A2
 656   0.0000      10.021453       272.6976  187-B2
 657   0.0000      10.060672       273.7648  141-A2
 658   0.0000      10.064934       273.8808  142-B1
 659   0.0000      10.181685       277.0577  190-A1
 660   0.0000      10.218062       278.0476  143-B1
 661   0.0000      10.219985       278.0999  188-B2
 662   0.0000      10.319040       280.7954  191-A1
 663   0.0000      10.350153       281.6420  189-B2
 664   0.0000      10.357124       281.8317  142-A2
 665   0.0000      10.429297       283.7956  190-B2
 666   0.0000      10.437367       284.0152  192-A1
 667   0.0000      10.590756       288.1891  143-A2
 668   0.0000      10.611011       288.7403  191-B2
 669   0.0000      10.625129       289.1244  144-B1
 670   0.0000      10.709790       291.4282  144-A2
 671   0.0000      10.921919       297.2005  192-B2
 672   0.0000      12.819370       348.8328  193-A1
 673   0.0000      12.942080       352.1719  145-B1
 674   0.0000      12.983731       353.3053  194-A1
 675   0.0000      13.079557       355.9128  193-B2
 676   0.0000      13.089422       356.1813  195-A1
 677   0.0000      13.230232       360.0129  145-A2
 678   0.0000      13.420221       365.1828  194-B2
 679   0.0000      13.505324       367.4986  195-B2
 680   0.0000      28.635424       779.2095  196-A1
 681   0.0000      28.767383       782.8003  197-A1
 682   0.0000      28.802099       783.7449  146-B1
 683   0.0000      28.809478       783.9458  196-B2
 684   0.0000      28.932045       787.2810  198-A1
 685   0.0000      28.989535       788.8453  197-B2
 686   0.0000      29.058457       790.7208  146-A2
 687   0.0000      29.115767       792.2803  198-B2
 688   0.0000     147.664742      4018.1619  199-A1
 689   0.0000     147.821016      4022.4144  200-A1
 690   0.0000     147.842117      4022.9885  199-B2
 691   0.0000     147.851652      4023.2480  147-B1
 692   0.0000     148.025183      4027.9700  201-A1
 693   0.0000     148.122931      4030.6299  200-B2
 694   0.0000     148.156159      4031.5340  147-A2
 695   0.0000     148.200619      4032.7439  201-B2

                 SPIN DOWN ORBITALS
  NO   OCC          E(Eh)            E(eV)    Irrep 
   0   1.0000     -10.180451      -277.0241    1-A1
   1   1.0000     -10.180448      -277.0241    1-B1
   2   1.0000     -10.180325      -277.0207    1-B2
   3   1.0000     -10.180320      -277.0206    1-A2
   4   1.0000     -10.175128      -276.8793    2-A1
   5   1.0000     -10.174919      -276.8736    2-B2
   6   1.0000     -10.165090      -276.6062    3-A1
   7   1.0000     -10.165090      -276.6061    3-B2
   8   1.0000      -0.919840       -25.0301    4-A1
   9   1.0000      -0.767933       -20.8965    4-B2
  10   1.0000      -0.707072       -19.2404    2-B1
  11   1.0000      -0.679873       -18.5003    5-A1
  12   1.0000      -0.574831       -15.6419    2-A2
  13   1.0000      -0.568972       -15.4825    5-B2
  14   1.0000      -0.543994       -14.8028    6-A1
  15   1.0000      -0.524104       -14.2616    7-A1
  16   1.0000      -0.469913       -12.7870    6-B2
  17   1.0000      -0.454245       -12.3606    8-A1
  18   1.0000      -0.449550       -12.2329    7-B2
  19   1.0000      -0.424574       -11.5532    3-B1
  20   1.0000      -0.376007       -10.2317    4-B1
  21   1.0000      -0.372267       -10.1299    9-A1
  22   1.0000      -0.313669        -8.5354    3-A2
  23   1.0000      -0.304424        -8.2838    5-B1
  24   1.0000      -0.282412        -7.6848    8-B2
  25   1.0000      -0.281844        -7.6694   10-A1
  26   1.0000      -0.264694        -7.2027    4-A2
  27   0.0000      -0.071745        -1.9523    9-B2
  28   0.0000      -0.044454        -1.2097   11-A1
  29   0.0000       0.027803         0.7565   12-A1
  30   0.0000       0.034269         0.9325   13-A1
  31   0.0000       0.035429         0.9641    6-B1
  32   0.0000       0.058282         1.5859   10-B2
  33   0.0000       0.068561         1.8657   14-A1
  34   0.0000       0.071967         1.9583    5-A2
  35   0.0000       0.075523         2.0551   11-B2
  36   0.0000       0.091073         2.4782   15-A1
  37   0.0000       0.093747         2.5510    7-B1
  38   0.0000       0.102960         2.8017   12-B2
  39   0.0000       0.120694         3.2842    8-B1
  40   0.0000       0.124919         3.3992   16-A1
  41   0.0000       0.148554         4.0424   13-B2
  42   0.0000       0.160619         4.3707    6-A2
  43   0.0000       0.163912         4.4603   17-A1
  44   0.0000       0.164762         4.4834   14-B2
[...]
      dz2     :     0.112112  d :     0.609436
      dxz     :     0.109167
      dyz     :     0.164559
      dx2y2   :     0.117542
      dxy     :     0.106056
      f0      :     0.027874  f :     0.166514
      f+1     :     0.028961
      f-1     :     0.017889
      f+2     :     0.024057
      f-2     :     0.024214
      f+3     :     0.025275
      f-3     :     0.018244
      g0      :     0.000945  g :     0.011357
      g+1     :     0.002223
      g-1     :     0.000943
      g+2     :     0.001703
      g-2     :     0.001298
      g+3     :     0.000568
      g-3     :     0.001534
      g+4     :     0.000698
      g-4     :     0.001444
 12 H s       :     0.807988  s :     0.807988
      pz      :     0.051046  p :     0.193599
      px      :     0.083126
      py      :     0.059426
      dz2     :     0.004871  d :     0.064516
      dxz     :     0.019783
      dyz     :     0.003091
      dx2y2   :     0.019854
      dxy     :     0.016916
      f0      :     0.001215  f :     0.009494
      f+1     :     0.000952
      f-1     :     0.000396
      f+2     :     0.001042
      f-2     :     0.001096
      f+3     :     0.002898
      f-3     :     0.001895
 13 C s       :     2.548284  s :     2.548284
      pz      :     0.855089  p :     2.627689
      px      :     0.928815
      py      :     0.843786
      dz2     :     0.124088  d :     0.613820
      dxz     :     0.106096
      dyz     :     0.103582
      dx2y2   :     0.151994
      dxy     :     0.128060
      f0      :     0.018020  f :     0.156619
      f+1     :     0.027137
      f-1     :     0.013054
      f+2     :     0.030479
      f-2     :     0.021634
      f+3     :     0.026506
      f-3     :     0.019790
      g0      :     0.000752  g :     0.010494
      g+1     :     0.001600
      g-1     :     0.000736
      g+2     :     0.001334
      g-2     :     0.001057
      g+3     :     0.001677
      g-3     :     0.001388
      g+4     :     0.000781
      g-4     :     0.001169
 14 H s       :     0.807988  s :     0.807988
      pz      :     0.051046  p :     0.193599
      px      :     0.083126
      py      :     0.059426
      dz2     :     0.004871  d :     0.064516
      dxz     :     0.019783
      dyz     :     0.003091
      dx2y2   :     0.019854
      dxy     :     0.016916
      f0      :     0.001215  f :     0.009494
      f+1     :     0.000952
      f-1     :     0.000396
      f+2     :     0.001042
      f-2     :     0.001096
      f+3     :     0.002898
      f-3     :     0.001895
 15 C s       :     2.548284  s :     2.548284
      pz      :     0.855089  p :     2.627689
      px      :     0.928815
      py      :     0.843786
      dz2     :     0.124088  d :     0.613820
      dxz     :     0.106096
      dyz     :     0.103582
      dx2y2   :     0.151994
      dxy     :     0.128060
      f0      :     0.018020  f :     0.156619
      f+1     :     0.027137
      f-1     :     0.013054
      f+2     :     0.030479
      f-2     :     0.021634
      f+3     :     0.026506
      f-3     :     0.019790
      g0      :     0.000752  g :     0.010494
      g+1     :     0.001600
      g-1     :     0.000736
      g+2     :     0.001334
      g-2     :     0.001057
      g+3     :     0.001677
      g-3     :     0.001388
      g+4     :     0.000781
      g-4     :     0.001169

SPIN
  0 H s       :     0.009034  s :     0.009034
      pz      :    -0.000242  p :     0.002900
      px      :    -0.000091
      py      :     0.003233
      dz2     :     0.000104  d :     0.000940
      dxz     :    -0.000187
      dyz     :    -0.000020
      dx2y2   :     0.000387
      dxy     :     0.000655
      f0      :    -0.000012  f :     0.000145
      f+1     :     0.000004
      f-1     :     0.000007
      f+2     :    -0.000015
      f-2     :    -0.000008
      f+3     :     0.000162
      f-3     :     0.000007
  1 C s       :     0.003419  s :     0.003419
      pz      :    -0.005122  p :     0.023342
      px      :    -0.000805
      py      :     0.029269
      dz2     :     0.014826  d :     0.074695
      dxz     :     0.003094
      dyz     :     0.007004
      dx2y2   :     0.026795
      dxy     :     0.022976
      f0      :     0.002171  f :     0.020780
      f+1     :     0.005223
      f-1     :     0.000488
      f+2     :     0.002681
      f-2     :     0.003214
      f+3     :     0.004550
      f-3     :     0.002452
      g0      :     0.000068  g :     0.001256
      g+1     :     0.000216
      g-1     :     0.000056
      g+2     :     0.000215
      g-2     :     0.000013
      g+3     :     0.000396
      g-3     :     0.000138
      g+4     :     0.000124
      g-4     :     0.000029
  2 H s       :     0.009034  s :     0.009034
      pz      :    -0.000242  p :     0.002900
      px      :    -0.000091
      py      :     0.003233
      dz2     :     0.000104  d :     0.000940
      dxz     :    -0.000187
      dyz     :    -0.000020
      dx2y2   :     0.000387
      dxy     :     0.000655
      f0      :    -0.000012  f :     0.000145
      f+1     :     0.000004
      f-1     :     0.000007
      f+2     :    -0.000015
      f-2     :    -0.000008
      f+3     :     0.000162
      f-3     :     0.000007
  3 C s       :     0.003419  s :     0.003419
      pz      :    -0.005122  p :     0.023342
      px      :    -0.000805
      py      :     0.029269
      dz2     :     0.014826  d :     0.074695
      dxz     :     0.003094
      dyz     :     0.007004
      dx2y2   :     0.026795
      dxy     :     0.022976
      f0      :     0.002171  f :     0.020780
      f+1     :     0.005223
      f-1     :     0.000488
      f+2     :     0.002681
      f-2     :     0.003214
      f+3     :     0.004550
      f-3     :     0.002452
      g0      :     0.000068  g :     0.001256
      g+1     :     0.000216
      g-1     :     0.000056
      g+2     :     0.000215
      g-2     :     0.000013
      g+3     :     0.000396
      g-3     :     0.000138
      g+4     :     0.000124
      g-4     :     0.000029
  4 H s       :    -0.009758  s :    -0.009758
      pz      :     0.015199  p :     0.067711
      px      :     0.000702
      py      :     0.051811
      dz2     :     0.005640  d :     0.022474
      dxz     :     0.000603
      dyz     :     0.014876
      dx2y2   :     0.001310
      dxy     :     0.000045
      f0      :     0.001018  f :     0.003198
      f+1     :     0.000100
      f-1     :     0.001618
      f+2     :     0.000431
      f-2     :     0.000012
      f+3     :     0.000002
      f-3     :     0.000017
  5 C s       :     0.020505  s :     0.020505
      pz      :     0.086084  p :     0.568422
      px      :     0.012301
      py      :     0.470038
      dz2     :     0.009566  d :     0.022516
      dxz     :    -0.000654
      dyz     :     0.007388
      dx2y2   :     0.007196
      dxy     :    -0.000981
      f0      :     0.001077  f :     0.003493
      f+1     :    -0.000111
      f-1     :    -0.000310
      f+2     :     0.001913
      f-2     :    -0.000471
      f+3     :    -0.000230
      f-3     :     0.001625
      g0      :     0.000037  g :     0.000267
      g+1     :    -0.000004
      g-1     :     0.000115
      g+2     :     0.000032
      g-2     :    -0.000020
      g+3     :    -0.000027
      g-3     :     0.000001
      g+4     :     0.000141
      g-4     :    -0.000008
  6 H s       :    -0.009758  s :    -0.009758
      pz      :     0.015199  p :     0.067711
      px      :     0.000702
      py      :     0.051811
      dz2     :     0.005640  d :     0.022474
      dxz     :     0.000603
      dyz     :     0.014876
      dx2y2   :     0.001310
      dxy     :     0.000045
      f0      :     0.001018  f :     0.003198
      f+1     :     0.000100
      f-1     :     0.001618
      f+2     :     0.000431
      f-2     :     0.000012
      f+3     :     0.000002
      f-3     :     0.000017
  7 C s       :     0.020505  s :     0.020505
      pz      :     0.086084  p :     0.568422
      px      :     0.012301
      py      :     0.470038
      dz2     :     0.009566  d :     0.022516
      dxz     :    -0.000654
      dyz     :     0.007388
      dx2y2   :     0.007196
      dxy     :    -0.000981
      f0      :     0.001077  f :     0.003493
      f+1     :    -0.000111
      f-1     :    -0.000310
      f+2     :     0.001913
      f-2     :    -0.000471
      f+3     :    -0.000230
      f-3     :     0.001625
      g0      :     0.000037  g :     0.000267
      g+1     :    -0.000004
      g-1     :     0.000115
      g+2     :     0.000032
      g-2     :    -0.000020
      g+3     :    -0.000027
      g-3     :     0.000001
      g+4     :     0.000141
      g-4     :    -0.000008
  8 H s       :     0.000923  s :     0.000923
      pz      :     0.001474  p :     0.001514
      px      :    -0.000192
      py      :     0.000233
      dz2     :     0.000239  d :     0.000309
      dxz     :    -0.000011
      dyz     :     0.000040
      dx2y2   :     0.000040
      dxy     :     0.000001
      f0      :     0.000021  f :     0.000036
      f+1     :     0.000001
      f-1     :     0.000001
      f+2     :     0.000009
      f-2     :     0.000000
      f+3     :    -0.000000
      f-3     :     0.000003
  9 C s       :     0.003980  s :     0.003980
      pz      :     0.008089  p :     0.011377
      px      :    -0.000129
      py      :     0.003417
      dz2     :     0.001965  d :     0.006637
      dxz     :    -0.000074
      dyz     :     0.001117
      dx2y2   :     0.004084
      dxy     :    -0.000455
      f0      :     0.000126  f :     0.003157
      f+1     :    -0.000234
      f-1     :     0.000738
      f+2     :     0.001071
      f-2     :    -0.000099
      f+3     :    -0.000037
      f-3     :     0.001592
      g0      :     0.000033  g :     0.000218
      g+1     :    -0.000030
      g-1     :     0.000026
      g+2     :     0.000012
      g-2     :    -0.000006
      g+3     :    -0.000001
      g-3     :     0.000177
      g+4     :     0.000006
      g-4     :     0.000001
 10 H s       :     0.000923  s :     0.000923
      pz      :     0.001474  p :     0.001514
      px      :    -0.000192
      py      :     0.000233
      dz2     :     0.000239  d :     0.000309
      dxz     :    -0.000011
      dyz     :     0.000040
      dx2y2   :     0.000040
      dxy     :     0.000001
      f0      :     0.000021  f :     0.000036
      f+1     :     0.000001
      f-1     :     0.000001
      f+2     :     0.000009
      f-2     :     0.000000
      f+3     :    -0.000000
      f-3     :     0.000003
 11 C s       :     0.003980  s :     0.003980
      pz      :     0.008089  p :     0.011377
      px      :    -0.000129
      py      :     0.003417
      dz2     :     0.001965  d :     0.006637
      dxz     :    -0.000074
      dyz     :     0.001117
      dx2y2   :     0.004084
      dxy     :    -0.000455
      f0      :     0.000126  f :     0.003157
      f+1     :    -0.000234
      f-1     :     0.000738
      f+2     :     0.001071
      f-2     :    -0.000099
      f+3     :    -0.000037
      f-3     :     0.001592
      g0      :     0.000033  g :     0.000218
      g+1     :    -0.000030
      g-1     :     0.000026
      g+2     :     0.000012
      g-2     :    -0.000006
      g+3     :    -0.000001
      g-3     :     0.000177
      g+4     :     0.000006
      g-4     :     0.000001
 12 H s       :     0.009034  s :     0.009034
      pz      :    -0.000242  p :     0.002900
      px      :    -0.000091
      py      :     0.003233
      dz2     :     0.000104  d :     0.000940
      dxz     :    -0.000187
      dyz     :    -0.000020
      dx2y2   :     0.000387
      dxy     :     0.000655
      f0      :    -0.000012  f :     0.000145
      f+1     :     0.000004
      f-1     :     0.000007
      f+2     :    -0.000015
      f-2     :    -0.000008
      f+3     :     0.000162
      f-3     :     0.000007
 13 C s       :     0.003419  s :     0.003419
      pz      :    -0.005122  p :     0.023342
      px      :    -0.000805
      py      :     0.029269
      dz2     :     0.014826  d :     0.074695
      dxz     :     0.003094
      dyz     :     0.007004
      dx2y2   :     0.026795
      dxy     :     0.022976
      f0      :     0.002171  f :     0.020780
      f+1     :     0.005223
      f-1     :     0.000488
      f+2     :     0.002681
      f-2     :     0.003214
      f+3     :     0.004550
      f-3     :     0.002452
      g0      :     0.000068  g :     0.001256
      g+1     :     0.000216
      g-1     :     0.000056
      g+2     :     0.000215
      g-2     :     0.000013
      g+3     :     0.000396
      g-3     :     0.000138
      g+4     :     0.000124
      g-4     :     0.000029
 14 H s       :     0.009034  s :     0.009034
      pz      :    -0.000242  p :     0.002900
      px      :    -0.000091
      py      :     0.003233
      dz2     :     0.000104  d :     0.000940
      dxz     :    -0.000187
      dyz     :    -0.000020
      dx2y2   :     0.000387
      dxy     :     0.000655
      f0      :    -0.000012  f :     0.000145
      f+1     :     0.000004
      f-1     :     0.000007
      f+2     :    -0.000015
      f-2     :    -0.000008
      f+3     :     0.000162
      f-3     :     0.000007
 15 C s       :     0.003419  s :     0.003419
      pz      :    -0.005122  p :     0.023342
      px      :    -0.000805
      py      :     0.029269
      dz2     :     0.014826  d :     0.074695
      dxz     :     0.003094
      dyz     :     0.007004
      dx2y2   :     0.026795
      dxy     :     0.022976
      f0      :     0.002171  f :     0.020780
      f+1     :     0.005223
      f-1     :     0.000488
      f+2     :     0.002681
      f-2     :     0.003214
      f+3     :     0.004550
      f-3     :     0.002452
      g0      :     0.000068  g :     0.001256
      g+1     :     0.000216
      g-1     :     0.000056
      g+2     :     0.000215
      g-2     :     0.000013
      g+3     :     0.000396
      g-3     :     0.000138
      g+4     :     0.000124
      g-4     :     0.000029


                      *****************************
                      * MAYER POPULATION ANALYSIS *
                      *****************************

  NA   - Mulliken gross atomic population
  ZA   - Total nuclear charge
  QA   - Mulliken gross atomic charge
  VA   - Mayer's total valence
  BVA  - Mayer's bonded valence
  FA   - Mayer's free valence

  ATOM       NA         ZA         QA         VA         BVA        FA
  0 H      0.9872     1.0000     0.0128     1.0181     1.0177     0.0004
  1 C      6.0053     6.0000    -0.0053     3.8404     3.8357     0.0047
  2 H      0.9872     1.0000     0.0128     1.0181     1.0177     0.0004
  3 C      6.0053     6.0000    -0.0053     3.8404     3.8357     0.0047
  4 H      0.9698     1.0000     0.0302     1.0374     1.0354     0.0020
  5 C      6.0342     6.0000    -0.0342     3.8147     3.1295     0.6852
  6 H      0.9698     1.0000     0.0302     1.0374     1.0354     0.0020
  7 C      6.0342     6.0000    -0.0342     3.8147     3.1295     0.6852
  8 H      0.9422     1.0000     0.0578     1.0236     1.0236     0.0000
  9 C      6.0690     6.0000    -0.0690     3.7166     3.7159     0.0007
 10 H      0.9422     1.0000     0.0578     1.0236     1.0236     0.0000
 11 C      6.0690     6.0000    -0.0690     3.7166     3.7159     0.0007
 12 H      0.9872     1.0000     0.0128     1.0181     1.0177     0.0004
 13 C      6.0053     6.0000    -0.0053     3.8404     3.8357     0.0047
 14 H      0.9872     1.0000     0.0128     1.0181     1.0177     0.0004
 15 C      6.0053     6.0000    -0.0053     3.8404     3.8357     0.0047

  Mayer bond orders larger than 0.1
B(  0-H ,  1-C ) :   0.9607 B(  1-C ,  3-C ) :   0.9184 B(  1-C ,  5-C ) :   1.0119 
B(  1-C ,  9-C ) :   0.8935 B(  2-H ,  3-C ) :   0.9607 B(  3-C ,  7-C ) :   1.0119 
B(  3-C , 11-C ) :   0.8935 B(  4-H ,  5-C ) :   0.9852 B(  5-C , 13-C ) :   1.0119 
B(  6-H ,  7-C ) :   0.9852 B(  7-C , 15-C ) :   1.0119 B(  8-H ,  9-C ) :   0.9795 
B(  9-C , 11-C ) :   0.9425 B(  9-C , 13-C ) :   0.8935 B( 10-H , 11-C ) :   0.9795 
B( 11-C , 15-C ) :   0.8935 B( 12-H , 13-C ) :   0.9607 B( 13-C , 15-C ) :   0.9184 
B( 14-H , 15-C ) :   0.9607 

-------
TIMINGS
-------

Total SCF time: 0 days 0 hours 20 min 5 sec 

Total time                  ....    1205.747 sec
Sum of individual times     ....    1210.952 sec  (100.4%)

Fock matrix formation       ....    1200.223 sec  ( 99.5%)
  Coulomb formation         ....    1188.187 sec  ( 99.0% of F)
  XC integration            ....      11.892 sec  (  1.0% of F)
    Basis function eval.    ....       0.612 sec  (  5.1% of XC)
    Density eval.           ....       2.605 sec  ( 21.9% of XC)
    XC-Functional eval.     ....       0.043 sec  (  0.4% of XC)
    XC-Potential eval.      ....       7.255 sec  ( 61.0% of XC)
Diagonalization             ....       1.347 sec  (  0.1%)
Density matrix formation    ....       0.105 sec  (  0.0%)
Population analysis         ....       1.803 sec  (  0.1%)
Initial guess               ....       5.684 sec  (  0.5%)
Orbital Transformation      ....       0.000 sec  (  0.0%)
Orbital Orthonormalization  ....       5.644 sec  (  0.5%)
DIIS solution               ....       0.921 sec  (  0.1%)
Grid generation             ....       0.869 sec  (  0.1%)
           ************************************************************
           *              Shut down parallel processing               *
           ************************************************************

-------------------------   --------------------
FINAL SINGLE POINT ENERGY      -309.318347669709
-------------------------   --------------------

                                *** OPTIMIZATION RUN DONE ***

                            ***************************************
                            *     ORCA property calculations      *
                            ***************************************

                                    ---------------------
                                    Active property flags
                                    ---------------------
   (+) Dipole Moment


------------------------------------------------------------------------------
                       ORCA ELECTRIC PROPERTIES CALCULATION
------------------------------------------------------------------------------

Dipole Moment Calculation                       ... on
Quadrupole Moment Calculation                   ... off
Polarizability Calculation                      ... off
GBWName                                         ... /home/vladimir/git/private/ORCA/C8H8/T-cubane-1/optimize/DFT/B3LYP/QZVP/./cubane.gbw
Electron density file                           ... /home/vladimir/git/private/ORCA/C8H8/T-cubane-1/optimize/DFT/B3LYP/QZVP/./cubane.scfp.tmp

-------------
DIPOLE MOMENT
-------------
                                X             Y             Z
Electronic contribution:     -0.00000      -0.00000      -0.16679
Nuclear contribution   :      0.00000       0.00000       0.07586
                        -----------------------------------------
Total Dipole Moment    :     -0.00000      -0.00000      -0.09093
                        -----------------------------------------
Magnitude (a.u.)       :      0.09093
Magnitude (Debye)      :      0.23112


Timings for individual modules:

Sum of individual times         ...     8840.076 sec (= 147.335 min)
GTO integral calculation        ...        3.838 sec (=   0.064 min)   0.0 %
SCF iterations                  ...     6409.447 sec (= 106.824 min)  72.5 %
SCF Gradient evaluation         ...     2426.628 sec (=  40.444 min)  27.5 %
Geometry relaxation             ...        0.163 sec (=   0.003 min)   0.0 %
                             ****ORCA TERMINATED NORMALLY****
TOTAL RUN TIME: 0 days 2 hours 27 minutes 20 seconds 432 msec
