 argument  1 = cubane.nw
                                         
                                         


              Northwest Computational Chemistry Package (NWChem) 6.6
              ------------------------------------------------------


                    Environmental Molecular Sciences Laboratory
                       Pacific Northwest National Laboratory
                                Richland, WA 99352

                              Copyright (c) 1994-2015
                       Pacific Northwest National Laboratory
                            Battelle Memorial Institute

             NWChem is an open-source computational chemistry package
                        distributed under the terms of the
                      Educational Community License (ECL) 2.0
             A copy of the license is included with this distribution
                              in the LICENSE.TXT file

                                  ACKNOWLEDGMENT
                                  --------------

            This software and its documentation were developed at the
            EMSL at Pacific Northwest National Laboratory, a multiprogram
            national laboratory, operated for the U.S. Department of Energy
            by Battelle under Contract Number DE-AC05-76RL01830. Support
            for this work was provided by the Department of Energy Office
            of Biological and Environmental Research, Office of Basic
            Energy Sciences, and the Office of Advanced Scientific Computing.


           Job information
           ---------------

    hostname        = konkov-work
    program         = nwchem
    date            = Sat Dec 10 16:49:51 2016

    compiled        = Вт_дек_06_20:35:56_2016
    source          = /home/vladimir/bin/nwchem-6.6
    nwchem branch   = 6.6
    nwchem revision = 27746
    ga revision     = 10594
    input           = cubane.nw
    prefix          = cubane.
    data base       = ./cubane.db
    status          = startup
    nproc           =        4
    time left       =     -1s



           Memory information
           ------------------

    heap     =   13107194 doubles =    100.0 Mbytes
    stack    =   13107199 doubles =    100.0 Mbytes
    global   =  393216000 doubles =   3000.0 Mbytes (distinct from heap & stack)
    total    =  419430393 doubles =   3200.0 Mbytes
    verify   = yes
    hardfail = no 


           Directory information
           ---------------------

  0 permanent = .
  0 scratch   = .




                                NWChem Input Module
                                -------------------


                           cubane CCSD/cc-pVTZ optimize
                           ----------------------------

 Scaling coordinates for geometry "geometry" by  1.889725989
 (inverse scale =  0.529177249)

 Turning off AUTOSYM since
 SYMMETRY directive was detected!


          ------
          auto-z
          ------


                             Geometry "geometry" -> ""
                             -------------------------

 Output coordinates in angstroms (scale by  1.889725989 to convert to a.u.)

  No.       Tag          Charge          X              Y              Z
 ---- ---------------- ---------- -------------- -------------- --------------
    1 H                    1.0000     1.41030000     1.41030000     1.41030000
    2 H                    1.0000    -1.41030000    -1.41030000     1.41030000
    3 H                    1.0000    -1.41030000     1.41030000    -1.41030000
    4 H                    1.0000     1.41030000    -1.41030000    -1.41030000
    5 H                    1.0000    -1.41030000    -1.41030000    -1.41030000
    6 H                    1.0000     1.41030000     1.41030000    -1.41030000
    7 H                    1.0000     1.41030000    -1.41030000     1.41030000
    8 H                    1.0000    -1.41030000     1.41030000     1.41030000
    9 C                    6.0000     0.78380000     0.78380000     0.78380000
   10 C                    6.0000    -0.78380000    -0.78380000     0.78380000
   11 C                    6.0000    -0.78380000     0.78380000    -0.78380000
   12 C                    6.0000     0.78380000    -0.78380000    -0.78380000
   13 C                    6.0000    -0.78380000    -0.78380000    -0.78380000
   14 C                    6.0000     0.78380000     0.78380000    -0.78380000
   15 C                    6.0000     0.78380000    -0.78380000     0.78380000
   16 C                    6.0000    -0.78380000     0.78380000     0.78380000

      Atomic Mass 
      ----------- 

      H                  1.007825
      C                 12.000000


 Effective nuclear repulsion energy (a.u.)     367.6581955566

            Nuclear Dipole moment (a.u.) 
            ----------------------------
        X                 Y               Z
 ---------------- ---------------- ----------------
     0.0000000000     0.0000000000     0.0000000000

      Symmetry information
      --------------------

 Group name             D2h       
 Group number             26
 Group order               8
 No. of unique centers     2

      Symmetry unique atoms

     1    9



                                Z-matrix (autoz)
                                -------- 

 Units are Angstrom for bonds and degrees for angles

      Type          Name      I     J     K     L     M      Value
      ----------- --------  ----- ----- ----- ----- ----- ----------
    1 Stretch                  1     9                       1.08513
    2 Stretch                  2    10                       1.08513
    3 Stretch                  3    11                       1.08513
    4 Stretch                  4    12                       1.08513
    5 Stretch                  5    13                       1.08513
    6 Stretch                  6    14                       1.08513
    7 Stretch                  7    15                       1.08513
    8 Stretch                  8    16                       1.08513
    9 Stretch                  9    14                       1.56760
   10 Stretch                  9    15                       1.56760
   11 Stretch                  9    16                       1.56760
   12 Stretch                 10    13                       1.56760
   13 Stretch                 10    15                       1.56760
   14 Stretch                 10    16                       1.56760
   15 Stretch                 11    13                       1.56760
   16 Stretch                 11    14                       1.56760
   17 Stretch                 11    16                       1.56760
   18 Stretch                 12    13                       1.56760
   19 Stretch                 12    14                       1.56760
   20 Stretch                 12    15                       1.56760
   21 Bend                     1     9    14               125.26439
   22 Bend                     1     9    15               125.26439
   23 Bend                     1     9    16               125.26439
   24 Bend                     2    10    13               125.26439
   25 Bend                     2    10    15               125.26439
   26 Bend                     2    10    16               125.26439
   27 Bend                     3    11    13               125.26439
   28 Bend                     3    11    14               125.26439
   29 Bend                     3    11    16               125.26439
   30 Bend                     4    12    13               125.26439
   31 Bend                     4    12    14               125.26439
   32 Bend                     4    12    15               125.26439
   33 Bend                     5    13    10               125.26439
   34 Bend                     5    13    11               125.26439
   35 Bend                     5    13    12               125.26439
   36 Bend                     6    14     9               125.26439
   37 Bend                     6    14    11               125.26439
   38 Bend                     6    14    12               125.26439
   39 Bend                     7    15     9               125.26439
   40 Bend                     7    15    10               125.26439
   41 Bend                     7    15    12               125.26439
   42 Bend                     8    16     9               125.26439
   43 Bend                     8    16    10               125.26439
   44 Bend                     8    16    11               125.26439
   45 Bend                     9    14    11                90.00000
   46 Bend                     9    14    12                90.00000
   47 Bend                     9    15    10                90.00000
   48 Bend                     9    15    12                90.00000
   49 Bend                     9    16    10                90.00000
   50 Bend                     9    16    11                90.00000
   51 Bend                    10    13    11                90.00000
   52 Bend                    10    13    12                90.00000
   53 Bend                    10    15    12                90.00000
   54 Bend                    10    16    11                90.00000
   55 Bend                    11    13    12                90.00000
   56 Bend                    11    14    12                90.00000
   57 Bend                    13    10    15                90.00000
   58 Bend                    13    10    16                90.00000
   59 Bend                    13    11    14                90.00000
   60 Bend                    13    11    16                90.00000
   61 Bend                    13    12    14                90.00000
   62 Bend                    13    12    15                90.00000
   63 Bend                    14     9    15                90.00000
   64 Bend                    14     9    16                90.00000
   65 Bend                    14    11    16                90.00000
   66 Bend                    14    12    15                90.00000
   67 Bend                    15     9    16                90.00000
   68 Bend                    15    10    16                90.00000
   69 Torsion                  1     9    14     6          -0.00000
   70 Torsion                  1     9    14    11        -135.00000
   71 Torsion                  1     9    14    12         135.00000
   72 Torsion                  1     9    15     7          -0.00000
   73 Torsion                  1     9    15    10         135.00000
   74 Torsion                  1     9    15    12        -135.00000
   75 Torsion                  1     9    16     8          -0.00000
   76 Torsion                  1     9    16    10        -135.00000
   77 Torsion                  1     9    16    11         135.00000
   78 Torsion                  2    10    13     5          -0.00000
   79 Torsion                  2    10    13    11         135.00000
   80 Torsion                  2    10    13    12        -135.00000
   81 Torsion                  2    10    15     7          -0.00000
   82 Torsion                  2    10    15     9        -135.00000
   83 Torsion                  2    10    15    12         135.00000
   84 Torsion                  2    10    16     8          -0.00000
   85 Torsion                  2    10    16     9         135.00000
   86 Torsion                  2    10    16    11        -135.00000
   87 Torsion                  3    11    13     5          -0.00000
   88 Torsion                  3    11    13    10        -135.00000
   89 Torsion                  3    11    13    12         135.00000
   90 Torsion                  3    11    14     6          -0.00000
   91 Torsion                  3    11    14     9         135.00000
   92 Torsion                  3    11    14    12        -135.00000
   93 Torsion                  3    11    16     8          -0.00000
   94 Torsion                  3    11    16     9        -135.00000
   95 Torsion                  3    11    16    10         135.00000
   96 Torsion                  4    12    13     5          -0.00000
   97 Torsion                  4    12    13    10         135.00000
   98 Torsion                  4    12    13    11        -135.00000
   99 Torsion                  4    12    14     6          -0.00000
  100 Torsion                  4    12    14     9        -135.00000
  101 Torsion                  4    12    14    11         135.00000
  102 Torsion                  4    12    15     7          -0.00000
  103 Torsion                  4    12    15     9         135.00000
  104 Torsion                  4    12    15    10        -135.00000
  105 Torsion                  5    13    10    15         135.00000
  106 Torsion                  5    13    10    16        -135.00000
  107 Torsion                  5    13    11    14        -135.00000
  108 Torsion                  5    13    11    16         135.00000
  109 Torsion                  5    13    12    14         135.00000
  110 Torsion                  5    13    12    15        -135.00000
  111 Torsion                  6    14     9    15        -135.00000
  112 Torsion                  6    14     9    16         135.00000
  113 Torsion                  6    14    11    13         135.00000
  114 Torsion                  6    14    11    16        -135.00000
  115 Torsion                  6    14    12    13        -135.00000
  116 Torsion                  6    14    12    15         135.00000
  117 Torsion                  7    15     9    14         135.00000
  118 Torsion                  7    15     9    16        -135.00000
  119 Torsion                  7    15    10    13        -135.00000
  120 Torsion                  7    15    10    16         135.00000
  121 Torsion                  7    15    12    13         135.00000
  122 Torsion                  7    15    12    14        -135.00000
  123 Torsion                  8    16     9    14        -135.00000
  124 Torsion                  8    16     9    15         135.00000
  125 Torsion                  8    16    10    13         135.00000
  126 Torsion                  8    16    10    15        -135.00000
  127 Torsion                  8    16    11    13        -135.00000
  128 Torsion                  8    16    11    14         135.00000
  129 Torsion                  9    14    11    13         -90.00000
  130 Torsion                  9    14    11    16           0.00000
  131 Torsion                  9    14    12    13          90.00000
  132 Torsion                  9    14    12    15           0.00000
  133 Torsion                  9    15    10    13          90.00000
  134 Torsion                  9    15    10    16           0.00000
  135 Torsion                  9    15    12    13         -90.00000
  136 Torsion                  9    15    12    14           0.00000
  137 Torsion                  9    16    10    13         -90.00000
  138 Torsion                  9    16    10    15           0.00000
  139 Torsion                  9    16    11    13          90.00000
  140 Torsion                  9    16    11    14           0.00000
  141 Torsion                 10    13    11    14          90.00000
  142 Torsion                 10    13    11    16           0.00000
  143 Torsion                 10    13    12    14         -90.00000
  144 Torsion                 10    13    12    15           0.00000
  145 Torsion                 10    15     9    14         -90.00000
  146 Torsion                 10    15     9    16           0.00000
  147 Torsion                 10    15    12    13           0.00000
  148 Torsion                 10    15    12    14          90.00000
  149 Torsion                 10    16     9    14          90.00000
  150 Torsion                 10    16     9    15           0.00000
  151 Torsion                 10    16    11    13           0.00000
  152 Torsion                 10    16    11    14         -90.00000
  153 Torsion                 11    13    10    15         -90.00000
  154 Torsion                 11    13    10    16           0.00000
  155 Torsion                 11    13    12    14           0.00000
  156 Torsion                 11    13    12    15          90.00000
  157 Torsion                 11    14     9    15          90.00000
  158 Torsion                 11    14     9    16           0.00000
  159 Torsion                 11    14    12    13           0.00000
  160 Torsion                 11    14    12    15         -90.00000
  161 Torsion                 11    16     9    14           0.00000
  162 Torsion                 11    16     9    15         -90.00000
  163 Torsion                 11    16    10    13           0.00000
  164 Torsion                 11    16    10    15          90.00000
  165 Torsion                 12    13    10    15           0.00000
  166 Torsion                 12    13    10    16          90.00000
  167 Torsion                 12    13    11    14           0.00000
  168 Torsion                 12    13    11    16         -90.00000
  169 Torsion                 12    14     9    15           0.00000
  170 Torsion                 12    14     9    16         -90.00000
  171 Torsion                 12    14    11    13           0.00000
  172 Torsion                 12    14    11    16          90.00000
  173 Torsion                 12    15     9    14           0.00000
  174 Torsion                 12    15     9    16          90.00000
  175 Torsion                 12    15    10    13           0.00000
  176 Torsion                 12    15    10    16         -90.00000


            XYZ format geometry
            -------------------
    16
 geometry
 H                     1.41030000     1.41030000     1.41030000
 H                    -1.41030000    -1.41030000     1.41030000
 H                    -1.41030000     1.41030000    -1.41030000
 H                     1.41030000    -1.41030000    -1.41030000
 H                    -1.41030000    -1.41030000    -1.41030000
 H                     1.41030000     1.41030000    -1.41030000
 H                     1.41030000    -1.41030000     1.41030000
 H                    -1.41030000     1.41030000     1.41030000
 C                     0.78380000     0.78380000     0.78380000
 C                    -0.78380000    -0.78380000     0.78380000
 C                    -0.78380000     0.78380000    -0.78380000
 C                     0.78380000    -0.78380000    -0.78380000
 C                    -0.78380000    -0.78380000    -0.78380000
 C                     0.78380000     0.78380000    -0.78380000
 C                     0.78380000    -0.78380000     0.78380000
 C                    -0.78380000     0.78380000     0.78380000

 ==============================================================================
                                internuclear distances
 ------------------------------------------------------------------------------
       center one      |      center two      | atomic units |  angstroms
 ------------------------------------------------------------------------------
    9 C                |   1 H                |     2.05060  |     1.08513
   10 C                |   2 H                |     2.05060  |     1.08513
   11 C                |   3 H                |     2.05060  |     1.08513
   12 C                |   4 H                |     2.05060  |     1.08513
   13 C                |   5 H                |     2.05060  |     1.08513
   13 C                |  10 C                |     2.96233  |     1.56760
   13 C                |  11 C                |     2.96233  |     1.56760
   13 C                |  12 C                |     2.96233  |     1.56760
   14 C                |   6 H                |     2.05060  |     1.08513
   14 C                |   9 C                |     2.96233  |     1.56760
   14 C                |  11 C                |     2.96233  |     1.56760
   14 C                |  12 C                |     2.96233  |     1.56760
   15 C                |   7 H                |     2.05060  |     1.08513
   15 C                |   9 C                |     2.96233  |     1.56760
   15 C                |  10 C                |     2.96233  |     1.56760
   15 C                |  12 C                |     2.96233  |     1.56760
   16 C                |   8 H                |     2.05060  |     1.08513
   16 C                |   9 C                |     2.96233  |     1.56760
   16 C                |  10 C                |     2.96233  |     1.56760
   16 C                |  11 C                |     2.96233  |     1.56760
 ------------------------------------------------------------------------------
                         number of included internuclear distances:         20
 ==============================================================================



 ==============================================================================
                                 internuclear angles
 ------------------------------------------------------------------------------
        center 1       |       center 2       |       center 3       |  degrees
 ------------------------------------------------------------------------------
    1 H                |   9 C                |  14 C                |   125.26
    1 H                |   9 C                |  15 C                |   125.26
    1 H                |   9 C                |  16 C                |   125.26
   14 C                |   9 C                |  15 C                |    90.00
   14 C                |   9 C                |  16 C                |    90.00
   15 C                |   9 C                |  16 C                |    90.00
    2 H                |  10 C                |  13 C                |   125.26
    2 H                |  10 C                |  15 C                |   125.26
    2 H                |  10 C                |  16 C                |   125.26
   13 C                |  10 C                |  15 C                |    90.00
   13 C                |  10 C                |  16 C                |    90.00
   15 C                |  10 C                |  16 C                |    90.00
    3 H                |  11 C                |  13 C                |   125.26
    3 H                |  11 C                |  14 C                |   125.26
    3 H                |  11 C                |  16 C                |   125.26
   13 C                |  11 C                |  14 C                |    90.00
   13 C                |  11 C                |  16 C                |    90.00
   14 C                |  11 C                |  16 C                |    90.00
    4 H                |  12 C                |  13 C                |   125.26
    4 H                |  12 C                |  14 C                |   125.26
    4 H                |  12 C                |  15 C                |   125.26
   13 C                |  12 C                |  14 C                |    90.00
   13 C                |  12 C                |  15 C                |    90.00
   14 C                |  12 C                |  15 C                |    90.00
    5 H                |  13 C                |  10 C                |   125.26
    5 H                |  13 C                |  11 C                |   125.26
    5 H                |  13 C                |  12 C                |   125.26
   10 C                |  13 C                |  11 C                |    90.00
   10 C                |  13 C                |  12 C                |    90.00
   11 C                |  13 C                |  12 C                |    90.00
    6 H                |  14 C                |   9 C                |   125.26
    6 H                |  14 C                |  11 C                |   125.26
    6 H                |  14 C                |  12 C                |   125.26
    9 C                |  14 C                |  11 C                |    90.00
    9 C                |  14 C                |  12 C                |    90.00
   11 C                |  14 C                |  12 C                |    90.00
    7 H                |  15 C                |   9 C                |   125.26
    7 H                |  15 C                |  10 C                |   125.26
    7 H                |  15 C                |  12 C                |   125.26
    9 C                |  15 C                |  10 C                |    90.00
    9 C                |  15 C                |  12 C                |    90.00
   10 C                |  15 C                |  12 C                |    90.00
    8 H                |  16 C                |   9 C                |   125.26
    8 H                |  16 C                |  10 C                |   125.26
    8 H                |  16 C                |  11 C                |   125.26
    9 C                |  16 C                |  10 C                |    90.00
    9 C                |  16 C                |  11 C                |    90.00
   10 C                |  16 C                |  11 C                |    90.00
 ------------------------------------------------------------------------------
                            number of included internuclear angles:         48
 ==============================================================================



  library name resolved from: environment
  library file name is: </home/vladimir/bin/nwchem-6.6/src/basis/libraries/>
  
                      Basis "ao basis" -> "" (spherical)
                      -----
  H (Hydrogen)
  ------------
            Exponent  Coefficients 
       -------------- ---------------------------------------------------------
  1 S  3.38700000E+01  0.006068
  1 S  5.09500000E+00  0.045308
  1 S  1.15900000E+00  0.202822

  2 S  3.25800000E-01  1.000000

  3 S  1.02700000E-01  1.000000

  4 P  1.40700000E+00  1.000000

  5 P  3.88000000E-01  1.000000

  6 D  1.05700000E+00  1.000000

  C (Carbon)
  ----------
            Exponent  Coefficients 
       -------------- ---------------------------------------------------------
  1 S  8.23600000E+03  0.000531
  1 S  1.23500000E+03  0.004108
  1 S  2.80800000E+02  0.021087
  1 S  7.92700000E+01  0.081853
  1 S  2.55900000E+01  0.234817
  1 S  8.99700000E+00  0.434401
  1 S  3.31900000E+00  0.346129
  1 S  3.64300000E-01 -0.008983

  2 S  8.23600000E+03 -0.000113
  2 S  1.23500000E+03 -0.000878
  2 S  2.80800000E+02 -0.004540
  2 S  7.92700000E+01 -0.018133
  2 S  2.55900000E+01 -0.055760
  2 S  8.99700000E+00 -0.126895
  2 S  3.31900000E+00 -0.170352
  2 S  3.64300000E-01  0.598684

  3 S  9.05900000E-01  1.000000

  4 S  1.28500000E-01  1.000000

  5 P  1.87100000E+01  0.014031
  5 P  4.13300000E+00  0.086866
  5 P  1.20000000E+00  0.290216

  6 P  3.82700000E-01  1.000000

  7 P  1.20900000E-01  1.000000

  8 D  1.09700000E+00  1.000000

  9 D  3.18000000E-01  1.000000

 10 F  7.61000000E-01  1.000000



 Summary of "ao basis" -> "" (spherical)
 ------------------------------------------------------------------------------
       Tag                 Description            Shells   Functions and Types
 ---------------- ------------------------------  ------  ---------------------
 H                          cc-pVTZ                  6       14   3s2p1d
 C                          cc-pVTZ                 10       30   4s3p2d1f




                           NWChem Geometry Optimization
                           ----------------------------




                           cubane CCSD/cc-pVTZ optimize


 maximum gradient threshold         (gmax) =   0.000450
 rms gradient threshold             (grms) =   0.000300
 maximum cartesian step threshold   (xmax) =   0.001800
 rms cartesian step threshold       (xrms) =   0.001200
 fixed trust radius                (trust) =   0.300000
 maximum step size to saddle      (sadstp) =   0.100000
 energy precision                  (eprec) =   1.0D-07
 maximum number of steps          (nptopt) =   20
 initial hessian option           (inhess) =    0
 line search option               (linopt) =    1
 hessian update option            (modupd) =    1
 saddle point option              (modsad) =    0
 initial eigen-mode to follow     (moddir) =    0
 initial variable to follow       (vardir) =    0
 follow first negative mode     (firstneg) =    T
 apply conjugacy                    (opcg) =    F
 source of zmatrix                         =   autoz   


          -------------------
          Energy Minimization
          -------------------


 Names of Z-matrix variables 
    1              2              3              4              5         
    6              7              8              9             10         
   11             12             13             14             15         
   16             17             18             19             20         
   21             22             23             24             25         
   26             27             28             29             30         
   31             32             33             34             35         
   36             37             38             39             40         
   41             42             43             44             45         
   46             47             48             49             50         
   51             52             53             54             55         
   56             57             58             59             60         
   61             62             63             64             65         
   66             67             68             69             70         
   71             72             73             74             75         
   76             77             78             79             80         
   81             82             83             84             85         
   86             87             88             89             90         
   91             92             93             94             95         
   96             97             98             99            100         
  101            102            103            104            105         
  106            107            108            109            110         
  111            112            113            114            115         
  116            117            118            119            120         
  121            122            123            124            125         
  126            127            128            129            130         
  131            132            133            134            135         
  136            137            138            139            140         
  141            142            143            144            145         
  146            147            148            149            150         
  151            152            153            154            155         
  156            157            158            159            160         
  161            162            163            164            165         
  166            167            168            169            170         
  171            172            173            174            175         
  176         

 Variables with the same non-blank name are constrained to be equal


 Using diagonal initial Hessian 
 Scaling for Hessian diagonals: bonds = 1.00  angles = 0.25  torsions = 0.10

          --------
          Step   0
          --------


                         Geometry "geometry" -> "geometry"
                         ---------------------------------

 Output coordinates in angstroms (scale by  1.889725989 to convert to a.u.)

  No.       Tag          Charge          X              Y              Z
 ---- ---------------- ---------- -------------- -------------- --------------
    1 H                    1.0000     1.41030000     1.41030000     1.41030000
    2 H                    1.0000    -1.41030000    -1.41030000     1.41030000
    3 H                    1.0000    -1.41030000     1.41030000    -1.41030000
    4 H                    1.0000     1.41030000    -1.41030000    -1.41030000
    5 H                    1.0000    -1.41030000    -1.41030000    -1.41030000
    6 H                    1.0000     1.41030000     1.41030000    -1.41030000
    7 H                    1.0000     1.41030000    -1.41030000     1.41030000
    8 H                    1.0000    -1.41030000     1.41030000     1.41030000
    9 C                    6.0000     0.78380000     0.78380000     0.78380000
   10 C                    6.0000    -0.78380000    -0.78380000     0.78380000
   11 C                    6.0000    -0.78380000     0.78380000    -0.78380000
   12 C                    6.0000     0.78380000    -0.78380000    -0.78380000
   13 C                    6.0000    -0.78380000    -0.78380000    -0.78380000
   14 C                    6.0000     0.78380000     0.78380000    -0.78380000
   15 C                    6.0000     0.78380000    -0.78380000     0.78380000
   16 C                    6.0000    -0.78380000     0.78380000     0.78380000

      Atomic Mass 
      ----------- 

      H                  1.007825
      C                 12.000000


 Effective nuclear repulsion energy (a.u.)     367.6581955566

            Nuclear Dipole moment (a.u.) 
            ----------------------------
        X                 Y               Z
 ---------------- ---------------- ----------------
     0.0000000000     0.0000000000     0.0000000000

      Symmetry information
      --------------------

 Group name             D2h       
 Group number             26
 Group order               8
 No. of unique centers     2

      Symmetry unique atoms

     1    9

                         NWChem Numerical Gradients Module
                         ---------------------------------


 No. of totally-symmetric internal modes =   6

                                 NWChem SCF Module
                                 -----------------


                           cubane CCSD/cc-pVTZ optimize



  ao basis        = "ao basis"
  functions       =   352
  atoms           =    16
  closed shells   =    28
  open shells     =     0
  charge          =   0.00
  wavefunction    = RHF 
  input vectors   = atomic
  output vectors  = ./cubane.movecs
  use symmetry    = T
  symmetry adapt  = T


 Summary of "ao basis" -> "ao basis" (spherical)
 ------------------------------------------------------------------------------
       Tag                 Description            Shells   Functions and Types
 ---------------- ------------------------------  ------  ---------------------
 H                          cc-pVTZ                  6       14   3s2p1d
 C                          cc-pVTZ                 10       30   4s3p2d1f


      Symmetry analysis of basis
      --------------------------

        ag         44
        au         44
        b1g        44
        b1u        44
        b2g        44
        b2u        44
        b3g        44
        b3u        44


 Forming initial guess at       1.1s


 !! The overlap matrix has   1 vectors deemed linearly dependent with
    eigenvalues:
 8.71D-06


      Superposition of Atomic Density Guess
      -------------------------------------

 Sum of atomic energies:        -305.36244765

      Non-variational initial energy
      ------------------------------

 Total energy =    -311.910795
 1-e energy   =   -1138.213093
 2-e energy   =     458.644102
 HOMO         =      -0.294453
 LUMO         =       0.041378


      Symmetry analysis of molecular orbitals - initial
      -------------------------------------------------


 !! scf_movecs_sym_adapt:  203 vectors were symmetry contaminated

  Symmetry fudging

 !! scf_movecs_sym_adapt:  176 vectors were symmetry contaminated

  Numbering of irreducible representations: 

     1 ag          2 au          3 b1g         4 b1u         5 b2g     
     6 b2u         7 b3g         8 b3u     

  Orbital symmetries:

     1 ag          2 b1u         3 b3u         4 b2u         5 b1g     
     6 b3g         7 b2g         8 au          9 ag         10 b1u     
    11 b3u        12 b2u        13 b2g        14 b3g        15 b1g     
    16 ag         17 au         18 ag         19 ag         20 b2u     
    21 b3u        22 b1u        23 b1u        24 b2u        25 b3u     
    26 b2g        27 b3g        28 b1g        29 b1u        30 b2u     
    31 b3u        32 ag         33 b2g        34 b3g        35 b1g     
    36 b1u        37 b3u        38 b2u     


 Starting SCF solution at     131.9s



 ----------------------------------------------
         Quadratically convergent ROHF

 Convergence threshold     :          1.000E-04
 Maximum no. of iterations :           30
 Final Fock-matrix accuracy:          1.000E-10
 ----------------------------------------------


              iter       energy          gnorm     gmax       time
             ----- ------------------- --------- --------- --------
                 1     -307.3981611319  9.80D-01  2.29D-01     71.0
                 2     -307.4768394142  3.04D-01  5.80D-02     98.1
                 3     -307.4849329625  9.19D-03  1.58D-03    138.3
                 4     -307.4849425866  1.36D-05  3.03D-06    172.5


       Final RHF  results 
       ------------------ 

         Total SCF energy =   -307.484942586644
      One-electron energy =  -1144.656583210246
      Two-electron energy =    469.513445067004
 Nuclear repulsion energy =    367.658195556598

        Time for solution =    128.7s



       Symmetry analysis of molecular orbitals - final
       -----------------------------------------------

  Numbering of irreducible representations: 

     1 ag          2 au          3 b1g         4 b1u         5 b2g     
     6 b2u         7 b3g         8 b3u     

  Orbital symmetries:

     1 ag          2 b2u         3 b3u         4 b1u         5 b1g     
     6 b2g         7 b3g         8 au          9 ag         10 b1u     
    11 b2u        12 b3u        13 b2g        14 b3g        15 b1g     
    16 ag         17 au         18 b1u        19 b2u        20 b3u     
    21 ag         22 ag         23 b1u        24 b2u        25 b3u     
    26 b3g        27 b2g        28 b1g        29 ag         30 b1u     
    31 b2u        32 b3u        33 b3g        34 b2g        35 b1g     
    36 b3u        37 b1u        38 b2u     

             Final eigenvalues
             -----------------

              1      
    1  -11.2214
    2  -11.2210
    3  -11.2210
    4  -11.2210
    5  -11.2204
    6  -11.2204
    7  -11.2204
    8  -11.2199
    9   -1.2430
   10   -0.9779
   11   -0.9779
   12   -0.9779
   13   -0.7678
   14   -0.7678
   15   -0.7678
   16   -0.7103
   17   -0.6419
   18   -0.5801
   19   -0.5801
   20   -0.5801
   21   -0.5787
   22   -0.5787
   23   -0.3900
   24   -0.3900
   25   -0.3900
   26   -0.3832
   27   -0.3832
   28   -0.3832
   29    0.1455
   30    0.1627
   31    0.1627
   32    0.1627
   33    0.1997
   34    0.1997
   35    0.1997
   36    0.2245
   37    0.2245
   38    0.2245

                       ROHF Final Molecular Orbital Analysis
                       -------------------------------------

 Vector    9  Occ=2.000000D+00  E=-1.243007D+00  Symmetry=ag
              MO Center=  0.0D+00, -7.6D-17, -6.9D-18, r^2= 1.7D+00
   Bfn.  Coefficient  Atom+Function         Bfn.  Coefficient  Atom+Function  
  ----- ------------  ---------------      ----- ------------  ---------------
   114      0.162607   9 C  s               144      0.162607  10 C  s         
   174      0.162607  11 C  s               204      0.162607  12 C  s         
   234      0.162607  13 C  s               264      0.162607  14 C  s         
   294      0.162607  15 C  s               324      0.162607  16 C  s         

 Vector   10  Occ=2.000000D+00  E=-9.778958D-01  Symmetry=b1u
              MO Center=  0.0D+00, -9.0D-17,  1.4D-16, r^2= 2.6D+00
   Bfn.  Coefficient  Atom+Function         Bfn.  Coefficient  Atom+Function  
  ----- ------------  ---------------      ----- ------------  ---------------
   114      0.168088   9 C  s               144      0.168088  10 C  s         
   174     -0.168088  11 C  s               204     -0.168088  12 C  s         
   234     -0.168088  13 C  s               264     -0.168088  14 C  s         
   294      0.168088  15 C  s               324      0.168088  16 C  s         

 Vector   11  Occ=2.000000D+00  E=-9.778958D-01  Symmetry=b2u
              MO Center=  4.2D-17, -4.2D-16,  2.8D-17, r^2= 2.6D+00
   Bfn.  Coefficient  Atom+Function         Bfn.  Coefficient  Atom+Function  
  ----- ------------  ---------------      ----- ------------  ---------------
   114      0.168088   9 C  s               144     -0.168088  10 C  s         
   174      0.168088  11 C  s               204     -0.168088  12 C  s         
   234     -0.168088  13 C  s               264      0.168088  14 C  s         
   294     -0.168088  15 C  s               324      0.168088  16 C  s         

 Vector   12  Occ=2.000000D+00  E=-9.778958D-01  Symmetry=b3u
              MO Center=  1.1D-16,  0.0D+00,  3.5D-17, r^2= 2.6D+00
   Bfn.  Coefficient  Atom+Function         Bfn.  Coefficient  Atom+Function  
  ----- ------------  ---------------      ----- ------------  ---------------
   114      0.168088   9 C  s               144     -0.168088  10 C  s         
   174     -0.168088  11 C  s               204      0.168088  12 C  s         
   234     -0.168088  13 C  s               264      0.168088  14 C  s         
   294      0.168088  15 C  s               324     -0.168088  16 C  s         

 Vector   13  Occ=2.000000D+00  E=-7.678193D-01  Symmetry=b2g
              MO Center= -1.4D-17, -6.9D-18, -1.4D-17, r^2= 4.1D+00
   Bfn.  Coefficient  Atom+Function         Bfn.  Coefficient  Atom+Function  
  ----- ------------  ---------------      ----- ------------  ---------------
   114      0.151569   9 C  s               144     -0.151569  10 C  s         
   174      0.151569  11 C  s               204     -0.151569  12 C  s         
   234      0.151569  13 C  s               264     -0.151569  14 C  s         
   294      0.151569  15 C  s               324     -0.151569  16 C  s         

 Vector   14  Occ=2.000000D+00  E=-7.678193D-01  Symmetry=b3g
              MO Center= -3.5D-17,  4.2D-17,  2.8D-17, r^2= 4.1D+00
   Bfn.  Coefficient  Atom+Function         Bfn.  Coefficient  Atom+Function  
  ----- ------------  ---------------      ----- ------------  ---------------
   114      0.151569   9 C  s               144     -0.151569  10 C  s         
   174     -0.151569  11 C  s               204      0.151569  12 C  s         
   234      0.151569  13 C  s               264     -0.151569  14 C  s         
   294     -0.151569  15 C  s               324      0.151569  16 C  s         

 Vector   15  Occ=2.000000D+00  E=-7.678193D-01  Symmetry=b1g
              MO Center= -1.4D-17,  1.5D-16, -4.7D-15, r^2= 4.1D+00
   Bfn.  Coefficient  Atom+Function         Bfn.  Coefficient  Atom+Function  
  ----- ------------  ---------------      ----- ------------  ---------------
   114      0.151569   9 C  s               144      0.151569  10 C  s         
   174     -0.151569  11 C  s               204     -0.151569  12 C  s         
   234      0.151569  13 C  s               264      0.151569  14 C  s         
   294     -0.151569  15 C  s               324     -0.151569  16 C  s         

 Vector   16  Occ=2.000000D+00  E=-7.102809D-01  Symmetry=ag
              MO Center= -6.9D-17,  5.6D-17,  1.4D-17, r^2= 4.3D+00
   Bfn.  Coefficient  Atom+Function         Bfn.  Coefficient  Atom+Function  
  ----- ------------  ---------------      ----- ------------  ---------------
     2      0.088008   1 H  s                16      0.088008   2 H  s         
    30      0.088008   3 H  s                44      0.088008   4 H  s         
    58      0.088008   5 H  s                72      0.088008   6 H  s         
    86      0.088008   7 H  s               100      0.088008   8 H  s         

 Vector   17  Occ=2.000000D+00  E=-6.418520D-01  Symmetry=au
              MO Center= -3.9D-16, -2.1D-16,  1.6D-15, r^2= 5.1D+00
   Bfn.  Coefficient  Atom+Function         Bfn.  Coefficient  Atom+Function  
  ----- ------------  ---------------      ----- ------------  ---------------
   114      0.120108   9 C  s               144      0.120108  10 C  s         
   174      0.120108  11 C  s               204      0.120108  12 C  s         
   234     -0.120108  13 C  s               264     -0.120108  14 C  s         
   294     -0.120108  15 C  s               324     -0.120108  16 C  s         

 Vector   18  Occ=2.000000D+00  E=-5.800599D-01  Symmetry=b1u
              MO Center=  1.9D-16,  1.1D-16, -4.7D-16, r^2= 4.2D+00
   Bfn.  Coefficient  Atom+Function         Bfn.  Coefficient  Atom+Function  
  ----- ------------  ---------------      ----- ------------  ---------------
     2      0.097958   1 H  s                16      0.097958   2 H  s         
    30     -0.097958   3 H  s                44     -0.097958   4 H  s         
    58     -0.097958   5 H  s                72     -0.097958   6 H  s         
    86      0.097958   7 H  s               100      0.097958   8 H  s         

 Vector   19  Occ=2.000000D+00  E=-5.800599D-01  Symmetry=b2u
              MO Center= -6.9D-17, -8.5D-16, -2.4D-16, r^2= 4.2D+00
   Bfn.  Coefficient  Atom+Function         Bfn.  Coefficient  Atom+Function  
  ----- ------------  ---------------      ----- ------------  ---------------
     2      0.097958   1 H  s                16     -0.097958   2 H  s         
    30      0.097958   3 H  s                44     -0.097958   4 H  s         
    58     -0.097958   5 H  s                72      0.097958   6 H  s         
    86     -0.097958   7 H  s               100      0.097958   8 H  s         

 Vector   20  Occ=2.000000D+00  E=-5.800599D-01  Symmetry=b3u
              MO Center=  5.1D-16, -6.9D-17,  1.4D-17, r^2= 4.2D+00
   Bfn.  Coefficient  Atom+Function         Bfn.  Coefficient  Atom+Function  
  ----- ------------  ---------------      ----- ------------  ---------------
     2      0.097958   1 H  s                16     -0.097958   2 H  s         
    30     -0.097958   3 H  s                44      0.097958   4 H  s         
    58     -0.097958   5 H  s                72      0.097958   6 H  s         
    86      0.097958   7 H  s               100     -0.097958   8 H  s         

 Vector   21  Occ=2.000000D+00  E=-5.786818D-01  Symmetry=ag
              MO Center= -2.1D-16,  3.1D-16,  6.9D-17, r^2= 2.6D+00
   Bfn.  Coefficient  Atom+Function         Bfn.  Coefficient  Atom+Function  
  ----- ------------  ---------------      ----- ------------  ---------------
   120      0.109238   9 C  px              150     -0.109238  10 C  px        
   180     -0.109238  11 C  px              210      0.109238  12 C  px        
   240     -0.109238  13 C  px              270      0.109238  14 C  px        
   300      0.109238  15 C  px              330     -0.109238  16 C  px        
   121     -0.099073   9 C  py              151      0.099073  10 C  py        

 Vector   22  Occ=2.000000D+00  E=-5.786818D-01  Symmetry=ag
              MO Center= -9.7D-17,  5.8D-16,  5.6D-17, r^2= 2.6D+00
   Bfn.  Coefficient  Atom+Function         Bfn.  Coefficient  Atom+Function  
  ----- ------------  ---------------      ----- ------------  ---------------
   122      0.120268   9 C  pz              152      0.120268  10 C  pz        
   182     -0.120268  11 C  pz              212     -0.120268  12 C  pz        
   242     -0.120268  13 C  pz              272     -0.120268  14 C  pz        
   302      0.120268  15 C  pz              332      0.120268  16 C  pz        

 Vector   23  Occ=2.000000D+00  E=-3.899812D-01  Symmetry=b1u
              MO Center= -8.3D-17, -5.6D-17, -3.9D-16, r^2= 2.9D+00
   Bfn.  Coefficient  Atom+Function         Bfn.  Coefficient  Atom+Function  
  ----- ------------  ---------------      ----- ------------  ---------------
   120      0.118675   9 C  px              121     -0.118675   9 C  py        
   150     -0.118675  10 C  px              151      0.118675  10 C  py        
   180      0.118675  11 C  px              181      0.118675  11 C  py        
   210     -0.118675  12 C  px              211     -0.118675  12 C  py        
   240      0.118675  13 C  px              241     -0.118675  13 C  py        

 Vector   24  Occ=2.000000D+00  E=-3.899812D-01  Symmetry=b2u
              MO Center=  4.2D-17, -2.5D-16,  1.4D-17, r^2= 2.9D+00
   Bfn.  Coefficient  Atom+Function         Bfn.  Coefficient  Atom+Function  
  ----- ------------  ---------------      ----- ------------  ---------------
   120      0.118675   9 C  px              122     -0.118675   9 C  pz        
   150      0.118675  10 C  px              152      0.118675  10 C  pz        
   180     -0.118675  11 C  px              182      0.118675  11 C  pz        
   210     -0.118675  12 C  px              212     -0.118675  12 C  pz        
   240      0.118675  13 C  px              242     -0.118675  13 C  pz        

 Vector   25  Occ=2.000000D+00  E=-3.899812D-01  Symmetry=b3u
              MO Center=  1.4D-16, -5.6D-17,  5.6D-17, r^2= 2.9D+00
   Bfn.  Coefficient  Atom+Function         Bfn.  Coefficient  Atom+Function  
  ----- ------------  ---------------      ----- ------------  ---------------
   121      0.118675   9 C  py              122     -0.118675   9 C  pz        
   151      0.118675  10 C  py              152      0.118675  10 C  pz        
   181     -0.118675  11 C  py              182     -0.118675  11 C  pz        
   211     -0.118675  12 C  py              212      0.118675  12 C  pz        
   241      0.118675  13 C  py              242     -0.118675  13 C  pz        

 Vector   26  Occ=2.000000D+00  E=-3.831650D-01  Symmetry=b3g
              MO Center= -3.7D-16, -1.4D-17,  1.4D-17, r^2= 3.5D+00
   Bfn.  Coefficient  Atom+Function         Bfn.  Coefficient  Atom+Function  
  ----- ------------  ---------------      ----- ------------  ---------------
   120      0.147701   9 C  px              150      0.147701  10 C  px        
   180      0.147701  11 C  px              210      0.147701  12 C  px        
   240     -0.147701  13 C  px              270     -0.147701  14 C  px        
   300     -0.147701  15 C  px              330     -0.147701  16 C  px        

 Vector   27  Occ=2.000000D+00  E=-3.831650D-01  Symmetry=b2g
              MO Center=  8.3D-17, -9.7D-15,  1.2D-16, r^2= 3.5D+00
   Bfn.  Coefficient  Atom+Function         Bfn.  Coefficient  Atom+Function  
  ----- ------------  ---------------      ----- ------------  ---------------
   121      0.147701   9 C  py              151      0.147701  10 C  py        
   181      0.147701  11 C  py              211      0.147701  12 C  py        
   241     -0.147701  13 C  py              271     -0.147701  14 C  py        
   301     -0.147701  15 C  py              331     -0.147701  16 C  py        

 Vector   28  Occ=2.000000D+00  E=-3.831650D-01  Symmetry=b1g
              MO Center= -4.2D-17, -1.4D-16,  3.3D-16, r^2= 3.5D+00
   Bfn.  Coefficient  Atom+Function         Bfn.  Coefficient  Atom+Function  
  ----- ------------  ---------------      ----- ------------  ---------------
   122      0.147701   9 C  pz              152      0.147701  10 C  pz        
   182      0.147701  11 C  pz              212      0.147701  12 C  pz        
   242     -0.147701  13 C  pz              272     -0.147701  14 C  pz        
   302     -0.147701  15 C  pz              332     -0.147701  16 C  pz        

 Vector   29  Occ=0.000000D+00  E= 1.454609D-01  Symmetry=ag
              MO Center=  3.1D-15, -1.6D-15,  6.1D-16, r^2= 1.2D+01
   Bfn.  Coefficient  Atom+Function         Bfn.  Coefficient  Atom+Function  
  ----- ------------  ---------------      ----- ------------  ---------------
     3      0.922822   1 H  s                17      0.922822   2 H  s         
    31      0.922822   3 H  s                45      0.922822   4 H  s         
    59      0.922822   5 H  s                73      0.922822   6 H  s         
    87      0.922822   7 H  s               101      0.922822   8 H  s         
   116     -0.768295   9 C  s               146     -0.768295  10 C  s         

 Vector   30  Occ=0.000000D+00  E= 1.627428D-01  Symmetry=b1u
              MO Center=  2.5D-15, -2.2D-15, -9.2D-15, r^2= 1.1D+01
   Bfn.  Coefficient  Atom+Function         Bfn.  Coefficient  Atom+Function  
  ----- ------------  ---------------      ----- ------------  ---------------
   116      1.150851   9 C  s               146      1.150851  10 C  s         
   176     -1.150851  11 C  s               206     -1.150851  12 C  s         
   236     -1.150851  13 C  s               266     -1.150851  14 C  s         
   296      1.150851  15 C  s               326      1.150851  16 C  s         
     3     -0.822220   1 H  s                17     -0.822220   2 H  s         

 Vector   31  Occ=0.000000D+00  E= 1.627428D-01  Symmetry=b2u
              MO Center= -2.2D-15, -1.0D-14, -4.2D-15, r^2= 1.1D+01
   Bfn.  Coefficient  Atom+Function         Bfn.  Coefficient  Atom+Function  
  ----- ------------  ---------------      ----- ------------  ---------------
   116      1.150851   9 C  s               146     -1.150851  10 C  s         
   176      1.150851  11 C  s               206     -1.150851  12 C  s         
   236     -1.150851  13 C  s               266      1.150851  14 C  s         
   296     -1.150851  15 C  s               326      1.150851  16 C  s         
     3     -0.822220   1 H  s                17      0.822220   2 H  s         

 Vector   32  Occ=0.000000D+00  E= 1.627428D-01  Symmetry=b3u
              MO Center=  9.7D-16, -1.1D-15,  2.1D-15, r^2= 1.1D+01
   Bfn.  Coefficient  Atom+Function         Bfn.  Coefficient  Atom+Function  
  ----- ------------  ---------------      ----- ------------  ---------------
   116      1.150851   9 C  s               146     -1.150851  10 C  s         
   176     -1.150851  11 C  s               206      1.150851  12 C  s         
   236     -1.150851  13 C  s               266      1.150851  14 C  s         
   296      1.150851  15 C  s               326     -1.150851  16 C  s         
     3     -0.822220   1 H  s                17      0.822220   2 H  s         

 Vector   33  Occ=0.000000D+00  E= 1.997095D-01  Symmetry=b3g
              MO Center= -3.5D-15, -2.2D-16, -1.2D-14, r^2= 1.4D+01
   Bfn.  Coefficient  Atom+Function         Bfn.  Coefficient  Atom+Function  
  ----- ------------  ---------------      ----- ------------  ---------------
     3      1.467767   1 H  s                17     -1.467767   2 H  s         
    31     -1.467767   3 H  s                45      1.467767   4 H  s         
    59      1.467767   5 H  s                73     -1.467767   6 H  s         
    87     -1.467767   7 H  s               101      1.467767   8 H  s         
   123     -1.039252   9 C  px              153     -1.039252  10 C  px        

 Vector   34  Occ=0.000000D+00  E= 1.997095D-01  Symmetry=b2g
              MO Center= -5.1D-15, -2.9D-15,  1.7D-15, r^2= 1.4D+01
   Bfn.  Coefficient  Atom+Function         Bfn.  Coefficient  Atom+Function  
  ----- ------------  ---------------      ----- ------------  ---------------
     3      1.467767   1 H  s                17     -1.467767   2 H  s         
    31      1.467767   3 H  s                45     -1.467767   4 H  s         
    59      1.467767   5 H  s                73     -1.467767   6 H  s         
    87      1.467767   7 H  s               101     -1.467767   8 H  s         
   124     -1.039252   9 C  py              154     -1.039252  10 C  py        

 Vector   35  Occ=0.000000D+00  E= 1.997095D-01  Symmetry=b1g
              MO Center= -3.6D-15,  3.9D-16, -6.7D-15, r^2= 1.4D+01
   Bfn.  Coefficient  Atom+Function         Bfn.  Coefficient  Atom+Function  
  ----- ------------  ---------------      ----- ------------  ---------------
     3      1.467767   1 H  s                17      1.467767   2 H  s         
    31     -1.467767   3 H  s                45     -1.467767   4 H  s         
    59      1.467767   5 H  s                73      1.467767   6 H  s         
    87     -1.467767   7 H  s               101     -1.467767   8 H  s         
   125     -1.039252   9 C  pz              155     -1.039252  10 C  pz        

 Vector   36  Occ=0.000000D+00  E= 2.244690D-01  Symmetry=b3u
              MO Center=  3.3D-16, -5.2D-15, -1.4D-15, r^2= 9.0D+00
   Bfn.  Coefficient  Atom+Function         Bfn.  Coefficient  Atom+Function  
  ----- ------------  ---------------      ----- ------------  ---------------
   123     -1.059545   9 C  px              153     -1.059545  10 C  px        
   183     -1.059545  11 C  px              213     -1.059545  12 C  px        
   243     -1.059545  13 C  px              273     -1.059545  14 C  px        
   303     -1.059545  15 C  px              333     -1.059545  16 C  px        
     3      0.978748   1 H  s                17     -0.978748   2 H  s         

 Vector   37  Occ=0.000000D+00  E= 2.244690D-01  Symmetry=b1u
              MO Center= -6.4D-15, -1.0D-15, -2.0D-15, r^2= 9.0D+00
   Bfn.  Coefficient  Atom+Function         Bfn.  Coefficient  Atom+Function  
  ----- ------------  ---------------      ----- ------------  ---------------
   125     -1.059545   9 C  pz              155     -1.059545  10 C  pz        
   185     -1.059545  11 C  pz              215     -1.059545  12 C  pz        
   245     -1.059545  13 C  pz              275     -1.059545  14 C  pz        
   305     -1.059545  15 C  pz              335     -1.059545  16 C  pz        
     3      0.978748   1 H  s                17      0.978748   2 H  s         

 Vector   38  Occ=0.000000D+00  E= 2.244690D-01  Symmetry=b2u
              MO Center= -5.0D-15,  4.0D-15, -1.4D-15, r^2= 9.0D+00
   Bfn.  Coefficient  Atom+Function         Bfn.  Coefficient  Atom+Function  
  ----- ------------  ---------------      ----- ------------  ---------------
   124     -1.059545   9 C  py              154     -1.059545  10 C  py        
   184     -1.059545  11 C  py              214     -1.059545  12 C  py        
   244     -1.059545  13 C  py              274     -1.059545  14 C  py        
   304     -1.059545  15 C  py              334     -1.059545  16 C  py        
     3      0.978748   1 H  s                17     -0.978748   2 H  s         

 Vector   39  Occ=0.000000D+00  E= 2.301477D-01  Symmetry=au
              MO Center=  9.5D-15, -1.1D-14,  9.7D-15, r^2= 1.5D+01
   Bfn.  Coefficient  Atom+Function         Bfn.  Coefficient  Atom+Function  
  ----- ------------  ---------------      ----- ------------  ---------------
     3      1.712512   1 H  s                17      1.712512   2 H  s         
    31      1.712512   3 H  s                45      1.712512   4 H  s         
    59     -1.712512   5 H  s                73     -1.712512   6 H  s         
    87     -1.712512   7 H  s               101     -1.712512   8 H  s         
   123     -0.906215   9 C  px              124     -0.906215   9 C  py        

 Vector   40  Occ=0.000000D+00  E= 3.488687D-01  Symmetry=b2g
              MO Center=  1.2D-15,  2.8D-17,  1.7D-15, r^2= 5.9D+00
   Bfn.  Coefficient  Atom+Function         Bfn.  Coefficient  Atom+Function  
  ----- ------------  ---------------      ----- ------------  ---------------
   123      0.989516   9 C  px              125     -0.989516   9 C  pz        
   153      0.989516  10 C  px              155      0.989516  10 C  pz        
   183     -0.989516  11 C  px              185      0.989516  11 C  pz        
   213     -0.989516  12 C  px              215     -0.989516  12 C  pz        
   243     -0.989516  13 C  px              245      0.989516  13 C  pz        

 Vector   41  Occ=0.000000D+00  E= 3.488687D-01  Symmetry=b1g
              MO Center= -1.7D-15,  2.1D-15, -7.2D-16, r^2= 5.9D+00
   Bfn.  Coefficient  Atom+Function         Bfn.  Coefficient  Atom+Function  
  ----- ------------  ---------------      ----- ------------  ---------------
   123      0.989516   9 C  px              124     -0.989516   9 C  py        
   153     -0.989516  10 C  px              154      0.989516  10 C  py        
   183      0.989516  11 C  px              184      0.989516  11 C  py        
   213     -0.989516  12 C  px              214     -0.989516  12 C  py        
   243     -0.989516  13 C  px              244      0.989516  13 C  py        

 Vector   42  Occ=0.000000D+00  E= 3.488687D-01  Symmetry=b3g
              MO Center=  5.6D-17,  5.0D-16, -2.5D-15, r^2= 5.9D+00
   Bfn.  Coefficient  Atom+Function         Bfn.  Coefficient  Atom+Function  
  ----- ------------  ---------------      ----- ------------  ---------------
   124      0.989516   9 C  py              125     -0.989516   9 C  pz        
   154      0.989516  10 C  py              155      0.989516  10 C  pz        
   184     -0.989516  11 C  py              185     -0.989516  11 C  pz        
   214     -0.989516  12 C  py              215      0.989516  12 C  pz        
   244     -0.989516  13 C  py              245      0.989516  13 C  pz        

 Vector   43  Occ=0.000000D+00  E= 3.679522D-01  Symmetry=b1g
              MO Center=  9.7D-15,  2.7D-14, -1.1D-14, r^2= 9.7D+00
   Bfn.  Coefficient  Atom+Function         Bfn.  Coefficient  Atom+Function  
  ----- ------------  ---------------      ----- ------------  ---------------
   116      5.626332   9 C  s               146      5.626332  10 C  s         
   176     -5.626332  11 C  s               206     -5.626332  12 C  s         
   236      5.626332  13 C  s               266      5.626332  14 C  s         
   296     -5.626332  15 C  s               326     -5.626332  16 C  s         
   123     -2.350915   9 C  px              124     -2.350915   9 C  py        

 Vector   44  Occ=0.000000D+00  E= 3.679522D-01  Symmetry=b2g
              MO Center=  3.1D-14, -6.2D-14, -2.6D-14, r^2= 9.7D+00
   Bfn.  Coefficient  Atom+Function         Bfn.  Coefficient  Atom+Function  
  ----- ------------  ---------------      ----- ------------  ---------------
   116      5.626332   9 C  s               146     -5.626332  10 C  s         
   176      5.626332  11 C  s               206     -5.626332  12 C  s         
   236      5.626332  13 C  s               266     -5.626332  14 C  s         
   296      5.626332  15 C  s               326     -5.626332  16 C  s         
   123     -2.350915   9 C  px              125     -2.350915   9 C  pz        

 Vector   45  Occ=0.000000D+00  E= 3.679522D-01  Symmetry=b3g
              MO Center=  5.1D-14,  3.3D-15,  1.9D-15, r^2= 9.7D+00
   Bfn.  Coefficient  Atom+Function         Bfn.  Coefficient  Atom+Function  
  ----- ------------  ---------------      ----- ------------  ---------------
   116      5.626332   9 C  s               146     -5.626332  10 C  s         
   176     -5.626332  11 C  s               206      5.626332  12 C  s         
   236      5.626332  13 C  s               266     -5.626332  14 C  s         
   296     -5.626332  15 C  s               326      5.626332  16 C  s         
   124     -2.350915   9 C  py              125     -2.350915   9 C  pz        

 Vector   46  Occ=0.000000D+00  E= 3.752493D-01  Symmetry=ag
              MO Center= -1.2D-16, -6.1D-16,  4.2D-16, r^2= 6.7D+00
   Bfn.  Coefficient  Atom+Function         Bfn.  Coefficient  Atom+Function  
  ----- ------------  ---------------      ----- ------------  ---------------
   125      0.298219   9 C  pz              155      0.298219  10 C  pz        
   185     -0.298219  11 C  pz              215     -0.298219  12 C  pz        
   245     -0.298219  13 C  pz              275     -0.298219  14 C  pz        
   305      0.298219  15 C  pz              335      0.298219  16 C  pz        
   122     -0.239708   9 C  pz              152     -0.239708  10 C  pz        

 Vector   47  Occ=0.000000D+00  E= 3.752493D-01  Symmetry=ag
              MO Center=  4.2D-16, -1.1D-16, -9.7D-17, r^2= 6.7D+00
   Bfn.  Coefficient  Atom+Function         Bfn.  Coefficient  Atom+Function  
  ----- ------------  ---------------      ----- ------------  ---------------
   123      0.257984   9 C  px              124     -0.258545   9 C  py        
   153     -0.257984  10 C  px              154      0.258545  10 C  py        
   183     -0.257984  11 C  px              184     -0.258545  11 C  py        
   213      0.257984  12 C  px              214      0.258545  12 C  py        
   243     -0.257984  13 C  px              244      0.258545  13 C  py        

 Vector   48  Occ=0.000000D+00  E= 3.800732D-01  Symmetry=ag
              MO Center= -1.6D-14,  2.0D-14,  1.1D-14, r^2= 5.9D+00
   Bfn.  Coefficient  Atom+Function         Bfn.  Coefficient  Atom+Function  
  ----- ------------  ---------------      ----- ------------  ---------------
     2      0.473688   1 H  s                16      0.473688   2 H  s         
    30      0.473688   3 H  s                44      0.473688   4 H  s         
    58      0.473688   5 H  s                72      0.473688   6 H  s         
    86      0.473688   7 H  s               100      0.473688   8 H  s         
   116     -0.194773   9 C  s               146     -0.194773  10 C  s         

 Vector   49  Occ=0.000000D+00  E= 4.340099D-01  Symmetry=b1u
              MO Center=  1.6D-15, -1.0D-15,  5.8D-16, r^2= 7.9D+00
   Bfn.  Coefficient  Atom+Function         Bfn.  Coefficient  Atom+Function  
  ----- ------------  ---------------      ----- ------------  ---------------
   123      0.508169   9 C  px              124     -0.508169   9 C  py        
   153     -0.508169  10 C  px              154      0.508169  10 C  py        
   183      0.508169  11 C  px              184      0.508169  11 C  py        
   213     -0.508169  12 C  px              214     -0.508169  12 C  py        
   243      0.508169  13 C  px              244     -0.508169  13 C  py        

 Vector   50  Occ=0.000000D+00  E= 4.340099D-01  Symmetry=b2u
              MO Center= -1.8D-15,  2.2D-16, -2.6D-15, r^2= 7.9D+00
   Bfn.  Coefficient  Atom+Function         Bfn.  Coefficient  Atom+Function  
  ----- ------------  ---------------      ----- ------------  ---------------
   123      0.508169   9 C  px              125     -0.508169   9 C  pz        
   153      0.508169  10 C  px              155      0.508169  10 C  pz        
   183     -0.508169  11 C  px              185      0.508169  11 C  pz        
   213     -0.508169  12 C  px              215     -0.508169  12 C  pz        
   243      0.508169  13 C  px              245     -0.508169  13 C  pz        

 Vector   51  Occ=0.000000D+00  E= 4.340099D-01  Symmetry=b3u
              MO Center=  2.8D-17,  6.9D-15, -1.1D-15, r^2= 7.9D+00
   Bfn.  Coefficient  Atom+Function         Bfn.  Coefficient  Atom+Function  
  ----- ------------  ---------------      ----- ------------  ---------------
   124      0.508169   9 C  py              125     -0.508169   9 C  pz        
   154      0.508169  10 C  py              155      0.508169  10 C  pz        
   184     -0.508169  11 C  py              185     -0.508169  11 C  pz        
   214     -0.508169  12 C  py              215      0.508169  12 C  pz        
   244      0.508169  13 C  py              245     -0.508169  13 C  pz        

 Vector   52  Occ=0.000000D+00  E= 4.837716D-01  Symmetry=au
              MO Center= -5.6D-14, -2.5D-14, -6.1D-14, r^2= 7.4D+00
   Bfn.  Coefficient  Atom+Function         Bfn.  Coefficient  Atom+Function  
  ----- ------------  ---------------      ----- ------------  ---------------
   123      2.530389   9 C  px              153     -2.530389  10 C  px        
   183     -2.530389  11 C  px              213      2.530389  12 C  px        
   243      2.530389  13 C  px              273     -2.530389  14 C  px        
   303     -2.530389  15 C  px              333      2.530389  16 C  px        
   125     -1.783678   9 C  pz              155     -1.783678  10 C  pz        

 Vector   53  Occ=0.000000D+00  E= 4.837716D-01  Symmetry=au
              MO Center=  2.8D-15,  1.3D-14,  2.3D-15, r^2= 7.4D+00
   Bfn.  Coefficient  Atom+Function         Bfn.  Coefficient  Atom+Function  
  ----- ------------  ---------------      ----- ------------  ---------------
   124      2.490728   9 C  py              154     -2.490728  10 C  py        
   184      2.490728  11 C  py              214     -2.490728  12 C  py        
   244      2.490728  13 C  py              274     -2.490728  14 C  py        
   304      2.490728  15 C  py              334     -2.490728  16 C  py        
   125     -1.892035   9 C  pz              155     -1.892035  10 C  pz        

 Vector   54  Occ=0.000000D+00  E= 4.975338D-01  Symmetry=b1u
              MO Center= -5.9D-15,  9.2D-15, -2.4D-15, r^2= 6.0D+00
   Bfn.  Coefficient  Atom+Function         Bfn.  Coefficient  Atom+Function  
  ----- ------------  ---------------      ----- ------------  ---------------
   116      1.683071   9 C  s               146      1.683071  10 C  s         
   176     -1.683071  11 C  s               206     -1.683071  12 C  s         
   236     -1.683071  13 C  s               266     -1.683071  14 C  s         
   296      1.683071  15 C  s               326      1.683071  16 C  s         
   125     -1.409765   9 C  pz              155     -1.409765  10 C  pz        

 Vector   55  Occ=0.000000D+00  E= 4.975338D-01  Symmetry=b3u
              MO Center=  1.6D-14, -1.1D-14, -3.9D-15, r^2= 6.0D+00
   Bfn.  Coefficient  Atom+Function         Bfn.  Coefficient  Atom+Function  
  ----- ------------  ---------------      ----- ------------  ---------------
   116      1.683071   9 C  s               146     -1.683071  10 C  s         
   176     -1.683071  11 C  s               206      1.683071  12 C  s         
   236     -1.683071  13 C  s               266      1.683071  14 C  s         
   296      1.683071  15 C  s               326     -1.683071  16 C  s         
   123     -1.409765   9 C  px              153     -1.409765  10 C  px        

 Vector   56  Occ=0.000000D+00  E= 4.975338D-01  Symmetry=b2u
              MO Center=  1.7D-15, -3.7D-14,  1.1D-14, r^2= 6.0D+00
   Bfn.  Coefficient  Atom+Function         Bfn.  Coefficient  Atom+Function  
  ----- ------------  ---------------      ----- ------------  ---------------
   116      1.683071   9 C  s               146     -1.683071  10 C  s         
   176      1.683071  11 C  s               206     -1.683071  12 C  s         
   236     -1.683071  13 C  s               266      1.683071  14 C  s         
   296     -1.683071  15 C  s               326      1.683071  16 C  s         
   124     -1.409765   9 C  py              154     -1.409765  10 C  py        

 Vector   57  Occ=0.000000D+00  E= 5.695395D-01  Symmetry=ag
              MO Center= -2.3D-15, -4.8D-15, -1.0D-14, r^2= 9.0D+00
   Bfn.  Coefficient  Atom+Function         Bfn.  Coefficient  Atom+Function  
  ----- ------------  ---------------      ----- ------------  ---------------
   116      1.631599   9 C  s               146      1.631599  10 C  s         
   176      1.631599  11 C  s               206      1.631599  12 C  s         
   236      1.631599  13 C  s               266      1.631599  14 C  s         
   296      1.631599  15 C  s               326      1.631599  16 C  s         
     3     -1.190496   1 H  s                17     -1.190496   2 H  s         


 center of mass
 --------------
 x =   0.00000000 y =   0.00000000 z =   0.00000000

 moments of inertia (a.u.)
 ------------------
         535.752144389546           0.000000000000           0.000000000000
           0.000000000000         535.752144389546           0.000000000000
           0.000000000000           0.000000000000         535.752144389546

  Mulliken analysis of the total density
  --------------------------------------

    Atom       Charge   Shell Charges
 -----------   ------   -------------------------------------------------------
    1 H    1     0.86   0.27  0.47  0.10  0.01  0.02  0.00
    2 H    1     0.86   0.27  0.47  0.10  0.01  0.02  0.00
    3 H    1     0.86   0.27  0.47  0.10  0.01  0.02  0.00
    4 H    1     0.86   0.27  0.47  0.10  0.01  0.02  0.00
    5 H    1     0.86   0.27  0.47  0.10  0.01  0.02  0.00
    6 H    1     0.86   0.27  0.47  0.10  0.01  0.02  0.00
    7 H    1     0.86   0.27  0.47  0.10  0.01  0.02  0.00
    8 H    1     0.86   0.27  0.47  0.10  0.01  0.02  0.00
    9 C    6     6.14   1.96  0.81  0.15  0.32  0.78  1.55  0.43  0.02  0.09  0.01
   10 C    6     6.14   1.96  0.81  0.15  0.32  0.78  1.55  0.43  0.02  0.09  0.01
   11 C    6     6.14   1.96  0.81  0.15  0.32  0.78  1.55  0.43  0.02  0.09  0.01
   12 C    6     6.14   1.96  0.81  0.15  0.32  0.78  1.55  0.43  0.02  0.09  0.01
   13 C    6     6.14   1.96  0.81  0.15  0.32  0.78  1.55  0.43  0.02  0.09  0.01
   14 C    6     6.14   1.96  0.81  0.15  0.32  0.78  1.55  0.43  0.02  0.09  0.01
   15 C    6     6.14   1.96  0.81  0.15  0.32  0.78  1.55  0.43  0.02  0.09  0.01
   16 C    6     6.14   1.96  0.81  0.15  0.32  0.78  1.55  0.43  0.02  0.09  0.01

       Multipole analysis of the density wrt the origin
       ------------------------------------------------

     L   x y z        total         open         nuclear
     -   - - -        -----         ----         -------
     0   0 0 0     -0.000000      0.000000     56.000000

     1   1 0 0      0.000000      0.000000      0.000000
     1   0 1 0      0.000000      0.000000      0.000000
     1   0 0 1     -0.000000      0.000000      0.000000

     2   2 0 0    -34.955692      0.000000    162.126341
     2   1 1 0      0.000000      0.000000      0.000000
     2   1 0 1      0.000000      0.000000      0.000000
     2   0 2 0    -34.955692      0.000000    162.126341
     2   0 1 1     -0.000000      0.000000      0.000000
     2   0 0 2    -34.955692      0.000000    162.126341

                   NWChem Extensible Many-Electron Theory Module
                   ---------------------------------------------

              ======================================================
                   This portion of the program was automatically
                  generated by a Tensor Contraction Engine (TCE).
                  The development of this portion of the program
                 and TCE was supported by US Department of Energy,
                Office of Science, Office of Basic Energy Science.
                      TCE is a product of Battelle and PNNL.
              Please cite: S.Hirata, J.Phys.Chem.A 107, 9887 (2003).
              ======================================================

                           cubane CCSD/cc-pVTZ optimize


            General Information
            -------------------
      Number of processors :     4
         Wavefunction type : Restricted Hartree-Fock
          No. of electrons :    56
           Alpha electrons :    28
            Beta electrons :    28
           No. of orbitals :   702
            Alpha orbitals :   351
             Beta orbitals :   351
        Alpha frozen cores :     8
         Beta frozen cores :     8
     Alpha frozen virtuals :     0
      Beta frozen virtuals :     0
         Spin multiplicity : singlet 
    Number of AO functions :   352
       Number of AO shells :   128
        Use of symmetry is : on 
      Symmetry adaption is : on 
         Schwarz screening : 0.10D-09

  !! WARNING !! The number of MO is less than the number of AO

          Correlation Information
          -----------------------
          Calculation type : Coupled-cluster singles & doubles                           
   Perturbative correction : none                                                        
            Max iterations :      100
        Residual threshold : 0.10D-06
     T(0) DIIS level shift : 0.00D+00
     L(0) DIIS level shift : 0.00D+00
     T(1) DIIS level shift : 0.00D+00
     L(1) DIIS level shift : 0.00D+00
     T(R) DIIS level shift : 0.00D+00
     T(I) DIIS level shift : 0.00D+00
   CC-T/L Amplitude update :  5-th order DIIS
                I/O scheme : Global Array Library
        L-threshold :  0.10D-06
        EOM-threshold :  0.10D-06
 no EOMCCSD initial starts read in
 TCE RESTART OPTIONS
 READ_INT:   F
 WRITE_INT:  F
 READ_TA:    F
 WRITE_TA:   F
 READ_XA:    F
 WRITE_XA:   F
 READ_IN3:   F
 WRITE_IN3:  F
 SLICE:      F
 D4D5:       F

            Memory Information
            ------------------
          Available GA space size is    1572740096 doubles
          Available MA space size is      26187852 doubles

 Maximum block size        32 doubles

 tile_dim =     21

 Block   Spin    Irrep     Size     Offset   Alpha
 -------------------------------------------------
   1    alpha     ag     4 doubles       0       1
   2    alpha     au     1 doubles       4       2
   3    alpha     b1g    2 doubles       5       3
   4    alpha     b1u    3 doubles       7       4
   5    alpha     b2g    2 doubles      10       5
   6    alpha     b2u    3 doubles      12       6
   7    alpha     b3g    2 doubles      15       7
   8    alpha     b3u    3 doubles      17       8
   9    beta      ag     4 doubles      20       1
  10    beta      au     1 doubles      24       2
  11    beta      b1g    2 doubles      25       3
  12    beta      b1u    3 doubles      27       4
  13    beta      b2g    2 doubles      30       5
  14    beta      b2u    3 doubles      32       6
  15    beta      b3g    2 doubles      35       7
  16    beta      b3u    3 doubles      37       8
  17    alpha     ag    19 doubles      40      17
  18    alpha     ag    20 doubles      59      18
  19    alpha     au    20 doubles      79      19
  20    alpha     au    21 doubles      99      20
  21    alpha     b1g   20 doubles     120      21
  22    alpha     b1g   21 doubles     140      22
  23    alpha     b1u   20 doubles     161      23
  24    alpha     b1u   20 doubles     181      24
  25    alpha     b2g   20 doubles     201      25
  26    alpha     b2g   21 doubles     221      26
  27    alpha     b2u   20 doubles     242      27
  28    alpha     b2u   20 doubles     262      28
  29    alpha     b3g   20 doubles     282      29
  30    alpha     b3g   21 doubles     302      30
  31    alpha     b3u   20 doubles     323      31
  32    alpha     b3u   20 doubles     343      32
  33    beta      ag    19 doubles     363      17
  34    beta      ag    20 doubles     382      18
  35    beta      au    20 doubles     402      19
  36    beta      au    21 doubles     422      20
  37    beta      b1g   20 doubles     443      21
  38    beta      b1g   21 doubles     463      22
  39    beta      b1u   20 doubles     484      23
  40    beta      b1u   20 doubles     504      24
  41    beta      b2g   20 doubles     524      25
  42    beta      b2g   21 doubles     544      26
  43    beta      b2u   20 doubles     565      27
  44    beta      b2u   20 doubles     585      28
  45    beta      b3g   20 doubles     605      29
  46    beta      b3g   21 doubles     625      30
  47    beta      b3u   20 doubles     646      31
  48    beta      b3u   20 doubles     666      32

 Global array virtual files algorithm will be used

 Parallel file system coherency ......... OK

 Fock matrix recomputed
 1-e file size   =            14707
 1-e file name   = ./cubane.f1         
 Cpu & wall time / sec           39.6           39.6
 4-electron integrals stored in orbital form

 v2    file size   =        257375088
 4-index algorithm nr.   5 is used
 imaxsize =       30
 imaxsize ichop =        0
 2_EL_BATCH AND COEFF MATRIX
 size_ic              3748323
 size_icc                  777
 tile_dim                   21
 max_na                   37
 INTERMEDIATE FILES
 size_4af           4572599641
[...]
   53 Bend                    10    15    12                90.00000    0.00000
   54 Bend                    10    16    11                90.00000    0.00000
   55 Bend                    11    13    12                90.00000    0.00000
   56 Bend                    11    14    12                90.00000    0.00000
   57 Bend                    13    10    15                90.00000    0.00000
   58 Bend                    13    10    16                90.00000    0.00000
   59 Bend                    13    11    14                90.00000    0.00000
   60 Bend                    13    11    16                90.00000    0.00000
   61 Bend                    13    12    14                90.00000    0.00000
   62 Bend                    13    12    15                90.00000    0.00000
   63 Bend                    14     9    15                90.00000    0.00000
   64 Bend                    14     9    16                90.00000    0.00000
   65 Bend                    14    11    16                90.00000    0.00000
   66 Bend                    14    12    15                90.00000    0.00000
   67 Bend                    15     9    16                90.00000    0.00000
   68 Bend                    15    10    16                90.00000    0.00000
   69 Torsion                  1     9    14     6           0.00000    0.00000
   70 Torsion                  1     9    14    11        -135.00000    0.00000
   71 Torsion                  1     9    14    12         135.00000    0.00000
   72 Torsion                  1     9    15     7           0.00000    0.00000
   73 Torsion                  1     9    15    10         135.00000   -0.00000
   74 Torsion                  1     9    15    12        -135.00000   -0.00000
   75 Torsion                  1     9    16     8          -0.00000    0.00000
   76 Torsion                  1     9    16    10        -135.00000   -0.00000
   77 Torsion                  1     9    16    11         135.00000   -0.00000
   78 Torsion                  2    10    13     5           0.00000    0.00000
   79 Torsion                  2    10    13    11         135.00000    0.00000
   80 Torsion                  2    10    13    12        -135.00000    0.00000
   81 Torsion                  2    10    15     7          -0.00000    0.00000
   82 Torsion                  2    10    15     9        -135.00000   -0.00000
   83 Torsion                  2    10    15    12         135.00000   -0.00000
   84 Torsion                  2    10    16     8           0.00000    0.00000
   85 Torsion                  2    10    16     9         135.00000   -0.00000
   86 Torsion                  2    10    16    11        -135.00000   -0.00000
   87 Torsion                  3    11    13     5           0.00000    0.00000
   88 Torsion                  3    11    13    10        -135.00000   -0.00000
   89 Torsion                  3    11    13    12         135.00000   -0.00000
   90 Torsion                  3    11    14     6          -0.00000    0.00000
   91 Torsion                  3    11    14     9         135.00000   -0.00000
   92 Torsion                  3    11    14    12        -135.00000   -0.00000
   93 Torsion                  3    11    16     8           0.00000    0.00000
   94 Torsion                  3    11    16     9        -135.00000    0.00000
   95 Torsion                  3    11    16    10         135.00000    0.00000
   96 Torsion                  4    12    13     5          -0.00000    0.00000
   97 Torsion                  4    12    13    10         135.00000   -0.00000
   98 Torsion                  4    12    13    11        -135.00000   -0.00000
   99 Torsion                  4    12    14     6           0.00000    0.00000
  100 Torsion                  4    12    14     9        -135.00000   -0.00000
  101 Torsion                  4    12    14    11         135.00000   -0.00000
  102 Torsion                  4    12    15     7           0.00000    0.00000
  103 Torsion                  4    12    15     9         135.00000    0.00000
  104 Torsion                  4    12    15    10        -135.00000    0.00000
  105 Torsion                  5    13    10    15         135.00000   -0.00000
  106 Torsion                  5    13    10    16        -135.00000   -0.00000
  107 Torsion                  5    13    11    14        -135.00000    0.00000
  108 Torsion                  5    13    11    16         135.00000    0.00000
  109 Torsion                  5    13    12    14         135.00000    0.00000
  110 Torsion                  5    13    12    15        -135.00000    0.00000
  111 Torsion                  6    14     9    15        -135.00000   -0.00000
  112 Torsion                  6    14     9    16         135.00000   -0.00000
  113 Torsion                  6    14    11    13         135.00000    0.00000
  114 Torsion                  6    14    11    16        -135.00000    0.00000
  115 Torsion                  6    14    12    13        -135.00000    0.00000
  116 Torsion                  6    14    12    15         135.00000    0.00000
  117 Torsion                  7    15     9    14         135.00000    0.00000
  118 Torsion                  7    15     9    16        -135.00000    0.00000
  119 Torsion                  7    15    10    13        -135.00000    0.00000
  120 Torsion                  7    15    10    16         135.00000    0.00000
  121 Torsion                  7    15    12    13         135.00000   -0.00000
  122 Torsion                  7    15    12    14        -135.00000   -0.00000
  123 Torsion                  8    16     9    14        -135.00000    0.00000
  124 Torsion                  8    16     9    15         135.00000    0.00000
  125 Torsion                  8    16    10    13         135.00000    0.00000
  126 Torsion                  8    16    10    15        -135.00000    0.00000
  127 Torsion                  8    16    11    13        -135.00000   -0.00000
  128 Torsion                  8    16    11    14         135.00000   -0.00000
  129 Torsion                  9    14    11    13         -90.00000    0.00000
  130 Torsion                  9    14    11    16           0.00000    0.00000
  131 Torsion                  9    14    12    13          90.00000    0.00000
  132 Torsion                  9    14    12    15           0.00000    0.00000
  133 Torsion                  9    15    10    13          90.00000    0.00000
  134 Torsion                  9    15    10    16           0.00000    0.00000
  135 Torsion                  9    15    12    13         -90.00000    0.00000
  136 Torsion                  9    15    12    14           0.00000    0.00000
  137 Torsion                  9    16    10    13         -90.00000    0.00000
  138 Torsion                  9    16    10    15           0.00000    0.00000
  139 Torsion                  9    16    11    13          90.00000    0.00000
  140 Torsion                  9    16    11    14           0.00000    0.00000
  141 Torsion                 10    13    11    14          90.00000    0.00000
  142 Torsion                 10    13    11    16           0.00000    0.00000
  143 Torsion                 10    13    12    14         -90.00000    0.00000
  144 Torsion                 10    13    12    15           0.00000    0.00000
  145 Torsion                 10    15     9    14         -90.00000    0.00000
  146 Torsion                 10    15     9    16           0.00000    0.00000
  147 Torsion                 10    15    12    13           0.00000    0.00000
  148 Torsion                 10    15    12    14          90.00000    0.00000
  149 Torsion                 10    16     9    14          90.00000    0.00000
  150 Torsion                 10    16     9    15           0.00000    0.00000
  151 Torsion                 10    16    11    13           0.00000    0.00000
  152 Torsion                 10    16    11    14         -90.00000    0.00000
  153 Torsion                 11    13    10    15         -90.00000    0.00000
  154 Torsion                 11    13    10    16           0.00000    0.00000
  155 Torsion                 11    13    12    14           0.00000    0.00000
  156 Torsion                 11    13    12    15          90.00000    0.00000
  157 Torsion                 11    14     9    15          90.00000    0.00000
  158 Torsion                 11    14     9    16           0.00000    0.00000
  159 Torsion                 11    14    12    13           0.00000    0.00000
  160 Torsion                 11    14    12    15         -90.00000    0.00000
  161 Torsion                 11    16     9    14           0.00000    0.00000
  162 Torsion                 11    16     9    15         -90.00000    0.00000
  163 Torsion                 11    16    10    13           0.00000    0.00000
  164 Torsion                 11    16    10    15          90.00000    0.00000
  165 Torsion                 12    13    10    15           0.00000    0.00000
  166 Torsion                 12    13    10    16          90.00000    0.00000
  167 Torsion                 12    13    11    14           0.00000    0.00000
  168 Torsion                 12    13    11    16         -90.00000    0.00000
  169 Torsion                 12    14     9    15           0.00000    0.00000
  170 Torsion                 12    14     9    16         -90.00000    0.00000
  171 Torsion                 12    14    11    13           0.00000    0.00000
  172 Torsion                 12    14    11    16          90.00000    0.00000
  173 Torsion                 12    15     9    14           0.00000    0.00000
  174 Torsion                 12    15     9    16          90.00000    0.00000
  175 Torsion                 12    15    10    13           0.00000    0.00000
  176 Torsion                 12    15    10    16         -90.00000    0.00000

 ==============================================================================
                                internuclear distances
 ------------------------------------------------------------------------------
       center one      |      center two      | atomic units |  angstroms
 ------------------------------------------------------------------------------
    9 C                |   1 H                |     2.05073  |     1.08520
   10 C                |   2 H                |     2.05073  |     1.08520
   11 C                |   3 H                |     2.05073  |     1.08520
   12 C                |   4 H                |     2.05073  |     1.08520
   13 C                |   5 H                |     2.05073  |     1.08520
   13 C                |  10 C                |     2.96240  |     1.56763
   13 C                |  11 C                |     2.96240  |     1.56763
   13 C                |  12 C                |     2.96240  |     1.56763
   14 C                |   6 H                |     2.05073  |     1.08520
   14 C                |   9 C                |     2.96240  |     1.56763
   14 C                |  11 C                |     2.96240  |     1.56763
   14 C                |  12 C                |     2.96240  |     1.56763
   15 C                |   7 H                |     2.05073  |     1.08520
   15 C                |   9 C                |     2.96240  |     1.56763
   15 C                |  10 C                |     2.96240  |     1.56763
   15 C                |  12 C                |     2.96240  |     1.56763
   16 C                |   8 H                |     2.05073  |     1.08520
   16 C                |   9 C                |     2.96240  |     1.56763
   16 C                |  10 C                |     2.96240  |     1.56763
   16 C                |  11 C                |     2.96240  |     1.56763
 ------------------------------------------------------------------------------
                         number of included internuclear distances:         20
 ==============================================================================



 ==============================================================================
                                 internuclear angles
 ------------------------------------------------------------------------------
        center 1       |       center 2       |       center 3       |  degrees
 ------------------------------------------------------------------------------
    1 H                |   9 C                |  14 C                |   125.26
    1 H                |   9 C                |  15 C                |   125.26
    1 H                |   9 C                |  16 C                |   125.26
   14 C                |   9 C                |  15 C                |    90.00
   14 C                |   9 C                |  16 C                |    90.00
   15 C                |   9 C                |  16 C                |    90.00
    2 H                |  10 C                |  13 C                |   125.26
    2 H                |  10 C                |  15 C                |   125.26
    2 H                |  10 C                |  16 C                |   125.26
   13 C                |  10 C                |  15 C                |    90.00
   13 C                |  10 C                |  16 C                |    90.00
   15 C                |  10 C                |  16 C                |    90.00
    3 H                |  11 C                |  13 C                |   125.26
    3 H                |  11 C                |  14 C                |   125.26
    3 H                |  11 C                |  16 C                |   125.26
   13 C                |  11 C                |  14 C                |    90.00
   13 C                |  11 C                |  16 C                |    90.00
   14 C                |  11 C                |  16 C                |    90.00
    4 H                |  12 C                |  13 C                |   125.26
    4 H                |  12 C                |  14 C                |   125.26
    4 H                |  12 C                |  15 C                |   125.26
   13 C                |  12 C                |  14 C                |    90.00
   13 C                |  12 C                |  15 C                |    90.00
   14 C                |  12 C                |  15 C                |    90.00
    5 H                |  13 C                |  10 C                |   125.26
    5 H                |  13 C                |  11 C                |   125.26
    5 H                |  13 C                |  12 C                |   125.26
   10 C                |  13 C                |  11 C                |    90.00
   10 C                |  13 C                |  12 C                |    90.00
   11 C                |  13 C                |  12 C                |    90.00
    6 H                |  14 C                |   9 C                |   125.26
    6 H                |  14 C                |  11 C                |   125.26
    6 H                |  14 C                |  12 C                |   125.26
    9 C                |  14 C                |  11 C                |    90.00
    9 C                |  14 C                |  12 C                |    90.00
   11 C                |  14 C                |  12 C                |    90.00
    7 H                |  15 C                |   9 C                |   125.26
    7 H                |  15 C                |  10 C                |   125.26
    7 H                |  15 C                |  12 C                |   125.26
    9 C                |  15 C                |  10 C                |    90.00
    9 C                |  15 C                |  12 C                |    90.00
   10 C                |  15 C                |  12 C                |    90.00
    8 H                |  16 C                |   9 C                |   125.26
    8 H                |  16 C                |  10 C                |   125.26
    8 H                |  16 C                |  11 C                |   125.26
    9 C                |  16 C                |  10 C                |    90.00
    9 C                |  16 C                |  11 C                |    90.00
   10 C                |  16 C                |  11 C                |    90.00
 ------------------------------------------------------------------------------
                            number of included internuclear angles:         48
 ==============================================================================




 Task  times  cpu:   265276.7s     wall:   416322.2s


                                NWChem Input Module
                                -------------------


 Summary of allocated global arrays
-----------------------------------
  No active global arrays



                         GA Statistics for process    0
                         ------------------------------

       create   destroy   get      put      acc     scatter   gather  read&inc
calls: 5.52e+04 5.52e+04 2.74e+08 1.72e+06 1.80e+07    0        0     3.96e+07 
number of processes/call 1.00e+00 1.04e+00 1.00e+00 0.00e+00 0.00e+00
bytes total:             2.10e+13 6.98e+10 2.27e+11 0.00e+00 0.00e+00 3.17e+08
bytes remote:            1.44e+13 4.18e+10 1.63e+11 0.00e+00 0.00e+00 0.00e+00
Max memory consumed for GA by this process: 732463656 bytes

MA_summarize_allocated_blocks: starting scan ...
MA_summarize_allocated_blocks: scan completed: 0 heap blocks, 0 stack blocks
MA usage statistics:

	allocation statistics:
					      heap	     stack
					      ----	     -----
	current number of blocks	         0	         0
	maximum number of blocks	        19	        40
	current total bytes		         0	         0
	maximum total bytes		    180736	  76377432
	maximum total K-bytes		       181	     76378
	maximum total M-bytes		         1	        77


                                     CITATION
                                     --------
                Please cite the following reference when publishing
                           results obtained with NWChem:

                 M. Valiev, E.J. Bylaska, N. Govind, K. Kowalski,
              T.P. Straatsma, H.J.J. van Dam, D. Wang, J. Nieplocha,
                        E. Apra, T.L. Windus, W.A. de Jong
                 "NWChem: a comprehensive and scalable open-source
                  solution for large scale molecular simulations"
                      Comput. Phys. Commun. 181, 1477 (2010)
                           doi:10.1016/j.cpc.2010.04.018

                                      AUTHORS
                                      -------
          E. Apra, E. J. Bylaska, W. A. de Jong, N. Govind, K. Kowalski,
       T. P. Straatsma, M. Valiev, H. J. J. van Dam, D. Wang, T. L. Windus,
        J. Hammond, J. Autschbach, K. Bhaskaran-Nair, J. Brabec, K. Lopata,
       S. A. Fischer, S. Krishnamoorthy, W. Ma, M. Klemm, O. Villa, Y. Chen,
    V. Anisimov, F. Aquino, S. Hirata, M. T. Hackler, T. Risthaus, M. Malagoli,
       A. Marenich, A. Otero-de-la-Roza, J. Mullin, P. Nichols, R. Peverati,
     J. Pittner, Y. Zhao, P.-D. Fan, A. Fonari, M. Williamson, R. J. Harrison,
       J. R. Rehr, M. Dupuis, D. Silverstein, D. M. A. Smith, J. Nieplocha,
        V. Tipparaju, M. Krishnan, B. E. Van Kuiken, A. Vazquez-Mayagoitia,
        L. Jensen, M. Swart, Q. Wu, T. Van Voorhis, A. A. Auer, M. Nooijen,
      L. D. Crosby, E. Brown, G. Cisneros, G. I. Fann, H. Fruchtl, J. Garza,
        K. Hirao, R. A. Kendall, J. A. Nichols, K. Tsemekhman, K. Wolinski,
     J. Anchell, D. E. Bernholdt, P. Borowski, T. Clark, D. Clerc, H. Dachsel,
   M. J. O. Deegan, K. Dyall, D. Elwood, E. Glendening, M. Gutowski, A. C. Hess,
         J. Jaffe, B. G. Johnson, J. Ju, R. Kobayashi, R. Kutteh, Z. Lin,
   R. Littlefield, X. Long, B. Meng, T. Nakajima, S. Niu, L. Pollack, M. Rosing,
   K. Glaesemann, G. Sandrone, M. Stave, H. Taylor, G. Thomas, J. H. van Lenthe,
                               A. T. Wong, Z. Zhang.

 Total times  cpu:   265276.8s     wall:   416322.3s
