 argument  1 = triplet.nw
                                         
                                         


              Northwest Computational Chemistry Package (NWChem) 6.8
              ------------------------------------------------------


                    Environmental Molecular Sciences Laboratory
                       Pacific Northwest National Laboratory
                                Richland, WA 99352

                              Copyright (c) 1994-2017
                       Pacific Northwest National Laboratory
                            Battelle Memorial Institute

             NWChem is an open-source computational chemistry package
                        distributed under the terms of the
                      Educational Community License (ECL) 2.0
             A copy of the license is included with this distribution
                              in the LICENSE.TXT file

                                  ACKNOWLEDGMENT
                                  --------------

            This software and its documentation were developed at the
            EMSL at Pacific Northwest National Laboratory, a multiprogram
            national laboratory, operated for the U.S. Department of Energy
            by Battelle under Contract Number DE-AC05-76RL01830. Support
            for this work was provided by the Department of Energy Office
            of Biological and Environmental Research, Office of Basic
            Energy Sciences, and the Office of Advanced Scientific Computing.


           Job information
           ---------------

    hostname        = vladimir-Kubuntu-16
    program         = nwchem
    date            = Sat Dec 21 13:24:38 2019

    compiled        = Wed_Aug_15_19:14:19_2018
    source          = /home/edo/debichem-team/nwchem/nwchem-6.8.1
    nwchem branch   = 6.8.1
    nwchem revision = v6.8-133-ge032219
    ga revision     = 5.6.5
    use scalapack   = T
    input           = triplet.nw
    prefix          = triplet.
    data base       = ./triplet.db
    status          = startup
    nproc           =        1
    time left       =     -1s



           Memory information
           ------------------

    heap     =   13107196 doubles =    100.0 Mbytes
    stack    =   13107201 doubles =    100.0 Mbytes
    global   =   26214400 doubles =    200.0 Mbytes (distinct from heap & stack)
    total    =   52428797 doubles =    400.0 Mbytes
    verify   = yes
    hardfail = no 


           Directory information
           ---------------------

  0 permanent = .
  0 scratch   = .




                                NWChem Input Module
                                -------------------


               cubane T-biradical MP2/cc-pVTZ geometry optimization
               ----------------------------------------------------

 Scaling coordinates for geometry "geometry" by  1.889725989
 (inverse scale =  0.529177249)

 Turning off AUTOSYM since
 SYMMETRY directive was detected!


          ------
          auto-z
          ------


                             Geometry "geometry" -> ""
                             -------------------------

 Output coordinates in angstroms (scale by  1.889725989 to convert to a.u.)

  No.       Tag          Charge          X              Y              Z
 ---- ---------------- ---------- -------------- -------------- --------------
    1 H                    1.0000     2.04590157    -1.27270098     0.01500537
    2 C                    6.0000     1.06730753    -0.80528423    -0.05619062
    3 H                    1.0000     2.04590157     1.27270098     0.01500537
    4 C                    6.0000     1.06730753     0.80528423    -0.05619062
    5 H                    1.0000     0.00000000    -1.52773530    -2.03390597
    6 C                    6.0000     0.00000000    -1.31653657    -0.97269603
    7 H                    1.0000     0.00000000     1.52773530    -2.03390597
    8 C                    6.0000     0.00000000     1.31653657    -0.97269603
    9 H                    1.0000     0.00000000    -1.44727888     1.94417541
   10 C                    6.0000     0.00000000    -0.77162098     1.09503057
   11 H                    1.0000     0.00000000     1.44727888     1.94417541
   12 C                    6.0000     0.00000000     0.77162098     1.09503057
   13 H                    1.0000    -2.04590157    -1.27270098     0.01500537
   14 C                    6.0000    -1.06730753    -0.80528423    -0.05619062
   15 H                    1.0000    -2.04590157     1.27270098     0.01500537
   16 C                    6.0000    -1.06730753     0.80528423    -0.05619062

      Atomic Mass 
      ----------- 

      H                  1.007825
      C                 12.000000


 Effective nuclear repulsion energy (a.u.)     359.9135263114

            Nuclear Dipole moment (a.u.) 
            ----------------------------
        X                 Y               Z
 ---------------- ---------------- ----------------
     0.0000000000     0.0000000000    -0.0000000000

      Symmetry information
      --------------------

 Group name             C2v       
 Group number             16
 Group order               4
 No. of unique centers     6

      Symmetry unique atoms

     1    2    5    6    9   10



                                Z-matrix (autoz)
                                -------- 

 Units are Angstrom for bonds and degrees for angles

      Type          Name      I     J     K     L     M      Value
      ----------- --------  ----- ----- ----- ----- ----- ----------
    1 Stretch                  1     2                       1.08683
    2 Stretch                  2     4                       1.61057
    3 Stretch                  2     6                       1.49683
    4 Stretch                  2    10                       1.57022
    5 Stretch                  3     4                       1.08683
    6 Stretch                  4     8                       1.49683
    7 Stretch                  4    12                       1.57022
    8 Stretch                  5     6                       1.08202
    9 Stretch                  6    14                       1.49683
   10 Stretch                  7     8                       1.08202
   11 Stretch                  8    16                       1.49683
   12 Stretch                  9    10                       1.08515
   13 Stretch                 10    12                       1.54324
   14 Stretch                 10    14                       1.57022
   15 Stretch                 11    12                       1.08515
   16 Stretch                 12    16                       1.57022
   17 Stretch                 13    14                       1.08683
   18 Stretch                 14    16                       1.61057
   19 Stretch                 15    16                       1.08683
   20 Bend                     1     2     4               115.47229
   21 Bend                     1     2     6               122.36090
   22 Bend                     1     2    10               124.97509
   23 Bend                     2     4     3               115.47229
   24 Bend                     2     4     8               109.97172
   25 Bend                     2     4    12                88.77157
   26 Bend                     2     6     5               131.85037
   27 Bend                     2     6    14                90.96629
   28 Bend                     2    10     9               124.08046
   29 Bend                     2    10    12                91.22843
   30 Bend                     2    10    14                85.64334
   31 Bend                     3     4     8               122.36090
   32 Bend                     3     4    12               124.97509
   33 Bend                     4     2     6               109.97172
   34 Bend                     4     2    10                88.77157
   35 Bend                     4     8     7               131.85037
   36 Bend                     4     8    16                90.96629
   37 Bend                     4    12    10                91.22843
   38 Bend                     4    12    11               124.08046
   39 Bend                     4    12    16                85.64334
   40 Bend                     5     6    14               131.85037
   41 Bend                     6     2    10                88.37052
   42 Bend                     6    14    10                88.37052
   43 Bend                     6    14    13               122.36090
   44 Bend                     6    14    16               109.97172
   45 Bend                     7     8    16               131.85037
   46 Bend                     8     4    12                88.37052
   47 Bend                     8    16    12                88.37052
   48 Bend                     8    16    14               109.97172
   49 Bend                     8    16    15               122.36090
   50 Bend                     9    10    12               128.50899
   51 Bend                     9    10    14               124.08046
   52 Bend                    10    12    11               128.50899
   53 Bend                    10    12    16                91.22843
   54 Bend                    10    14    13               124.97509
   55 Bend                    10    14    16                88.77157
   56 Bend                    11    12    16               124.08046
   57 Bend                    12    10    14                91.22843
   58 Bend                    12    16    14                88.77157
   59 Bend                    12    16    15               124.97509
   60 Bend                    13    14    16               115.47229
   61 Bend                    14    16    15               115.47229
   62 Torsion                  1     2     4     3           0.00000
   63 Torsion                  1     2     4     8         143.50818
   64 Torsion                  1     2     4    12        -128.67275
   65 Torsion                  1     2     6     5         -53.21109
   66 Torsion                  1     2     6    14         151.15598
   67 Torsion                  1     2    10     9         -19.37159
   68 Torsion                  1     2    10    12         120.66276
   69 Torsion                  1     2    10    14        -148.19858
   70 Torsion                  2     4     8     7         -87.32341
   71 Torsion                  2     4     8    16          68.30951
   72 Torsion                  2     4    12    10           0.00000
   73 Torsion                  2     4    12    11         140.03435
   74 Torsion                  2     4    12    16         -91.13865
   75 Torsion                  2     6    14    10         -19.79034
   76 Torsion                  2     6    14    13        -151.15598
   77 Torsion                  2     6    14    16          68.30951
   78 Torsion                  2    10    12     4           0.00000
   79 Torsion                  2    10    12    11        -137.16612
   80 Torsion                  2    10    12    16          85.66775
   81 Torsion                  2    10    14     6          18.88347
   82 Torsion                  2    10    14    13         148.19858
   83 Torsion                  2    10    14    16         -91.13865
   84 Torsion                  3     4     2     6        -143.50818
   85 Torsion                  3     4     2    10         128.67275
   86 Torsion                  3     4     8     7          53.21109
   87 Torsion                  3     4     8    16        -151.15598
   88 Torsion                  3     4    12    10        -120.66276
   89 Torsion                  3     4    12    11          19.37159
   90 Torsion                  3     4    12    16         148.19858
   91 Torsion                  4     2     6     5          87.32341
   92 Torsion                  4     2     6    14         -68.30951
   93 Torsion                  4     2    10     9        -140.03435
   94 Torsion                  4     2    10    12           0.00000
   95 Torsion                  4     2    10    14          91.13865
   96 Torsion                  4     8    16    12          19.79034
   97 Torsion                  4     8    16    14         -68.30951
   98 Torsion                  4     8    16    15         151.15598
   99 Torsion                  4    12    10     9         137.16612
  100 Torsion                  4    12    10    14         -85.66775
  101 Torsion                  4    12    16     8         -18.88347
  102 Torsion                  4    12    16    14          91.13865
  103 Torsion                  4    12    16    15        -148.19858
  104 Torsion                  5     6     2    10         175.42327
  105 Torsion                  5     6    14    10        -175.42327
  106 Torsion                  5     6    14    13          53.21109
  107 Torsion                  5     6    14    16         -87.32341
  108 Torsion                  6     2     4     8           0.00000
  109 Torsion                  6     2     4    12          87.81907
  110 Torsion                  6     2    10     9         109.94352
  111 Torsion                  6     2    10    12        -110.02212
  112 Torsion                  6     2    10    14         -18.88347
  113 Torsion                  6    14    10     9        -109.94352
  114 Torsion                  6    14    10    12         110.02212
  115 Torsion                  6    14    16     8           0.00000
  116 Torsion                  6    14    16    12         -87.81907
  117 Torsion                  6    14    16    15         143.50818
  118 Torsion                  7     8     4    12        -175.42327
  119 Torsion                  7     8    16    12         175.42327
  120 Torsion                  7     8    16    14          87.32341
  121 Torsion                  7     8    16    15         -53.21109
  122 Torsion                  8     4     2    10         -87.81907
  123 Torsion                  8     4    12    10         110.02212
  124 Torsion                  8     4    12    11        -109.94352
  125 Torsion                  8     4    12    16          18.88347
  126 Torsion                  8    16    12    10        -110.02212
  127 Torsion                  8    16    12    11         109.94352
  128 Torsion                  8    16    14    10          87.81907
  129 Torsion                  8    16    14    13        -143.50818
  130 Torsion                  9    10    12    11           0.00000
  131 Torsion                  9    10    12    16        -137.16612
  132 Torsion                  9    10    14    13          19.37159
  133 Torsion                  9    10    14    16         140.03435
  134 Torsion                 10     2     4    12           0.00000
  135 Torsion                 10     2     6    14          19.79034
  136 Torsion                 10    12    16    14           0.00000
  137 Torsion                 10    12    16    15         120.66276
  138 Torsion                 10    14    16    12           0.00000
  139 Torsion                 10    14    16    15        -128.67275
  140 Torsion                 11    12    10    14         137.16612
  141 Torsion                 11    12    16    14        -140.03435
  142 Torsion                 11    12    16    15         -19.37159
  143 Torsion                 12     4     8    16         -19.79034
  144 Torsion                 12    10    14    13        -120.66276
  145 Torsion                 12    10    14    16          -0.00000
  146 Torsion                 12    16    14    13         128.67275
  147 Torsion                 13    14    16    15           0.00000
  148 Torsion                 14    10    12    16           0.00000


            XYZ format geometry
            -------------------
    16
 geometry
 H                     2.04590157    -1.27270098     0.01500537
 C                     1.06730753    -0.80528423    -0.05619062
 H                     2.04590157     1.27270098     0.01500537
 C                     1.06730753     0.80528423    -0.05619062
 H                     0.00000000    -1.52773530    -2.03390597
 C                     0.00000000    -1.31653657    -0.97269603
 H                     0.00000000     1.52773530    -2.03390597
 C                     0.00000000     1.31653657    -0.97269603
 H                     0.00000000    -1.44727888     1.94417541
 C                     0.00000000    -0.77162098     1.09503057
 H                     0.00000000     1.44727888     1.94417541
 C                     0.00000000     0.77162098     1.09503057
 H                    -2.04590157    -1.27270098     0.01500537
 C                    -1.06730753    -0.80528423    -0.05619062
 H                    -2.04590157     1.27270098     0.01500537
 C                    -1.06730753     0.80528423    -0.05619062

 ==============================================================================
                                internuclear distances
 ------------------------------------------------------------------------------
       center one      |      center two      | atomic units |  angstroms
 ------------------------------------------------------------------------------
    2 C                |   1 H                |     2.05381  |     1.08683
    4 C                |   2 C                |     3.04353  |     1.61057
    4 C                |   3 H                |     2.05381  |     1.08683
    6 C                |   2 C                |     2.82860  |     1.49683
    6 C                |   5 H                |     2.04472  |     1.08202
    8 C                |   4 C                |     2.82860  |     1.49683
    8 C                |   7 H                |     2.04472  |     1.08202
   10 C                |   2 C                |     2.96728  |     1.57022
   10 C                |   9 H                |     2.05064  |     1.08515
   12 C                |   4 C                |     2.96728  |     1.57022
   12 C                |  10 C                |     2.91630  |     1.54324
   12 C                |  11 H                |     2.05064  |     1.08515
   14 C                |   6 C                |     2.82860  |     1.49683
   14 C                |  10 C                |     2.96728  |     1.57022
   14 C                |  13 H                |     2.05381  |     1.08683
   16 C                |   8 C                |     2.82860  |     1.49683
   16 C                |  12 C                |     2.96728  |     1.57022
   16 C                |  14 C                |     3.04353  |     1.61057
   16 C                |  15 H                |     2.05381  |     1.08683
 ------------------------------------------------------------------------------
                         number of included internuclear distances:         19
 ==============================================================================



 ==============================================================================
                                 internuclear angles
 ------------------------------------------------------------------------------
        center 1       |       center 2       |       center 3       |  degrees
 ------------------------------------------------------------------------------
    1 H                |   2 C                |   4 C                |   115.47
    1 H                |   2 C                |   6 C                |   122.36
    1 H                |   2 C                |  10 C                |   124.98
    4 C                |   2 C                |   6 C                |   109.97
    4 C                |   2 C                |  10 C                |    88.77
    6 C                |   2 C                |  10 C                |    88.37
    2 C                |   4 C                |   3 H                |   115.47
    2 C                |   4 C                |   8 C                |   109.97
    2 C                |   4 C                |  12 C                |    88.77
    3 H                |   4 C                |   8 C                |   122.36
    3 H                |   4 C                |  12 C                |   124.98
    8 C                |   4 C                |  12 C                |    88.37
    2 C                |   6 C                |   5 H                |   131.85
    2 C                |   6 C                |  14 C                |    90.97
    5 H                |   6 C                |  14 C                |   131.85
    4 C                |   8 C                |   7 H                |   131.85
    4 C                |   8 C                |  16 C                |    90.97
    7 H                |   8 C                |  16 C                |   131.85
    2 C                |  10 C                |   9 H                |   124.08
    2 C                |  10 C                |  12 C                |    91.23
    2 C                |  10 C                |  14 C                |    85.64
    9 H                |  10 C                |  12 C                |   128.51
    9 H                |  10 C                |  14 C                |   124.08
   12 C                |  10 C                |  14 C                |    91.23
    4 C                |  12 C                |  10 C                |    91.23
    4 C                |  12 C                |  11 H                |   124.08
    4 C                |  12 C                |  16 C                |    85.64
   10 C                |  12 C                |  11 H                |   128.51
   10 C                |  12 C                |  16 C                |    91.23
   11 H                |  12 C                |  16 C                |   124.08
    6 C                |  14 C                |  10 C                |    88.37
    6 C                |  14 C                |  13 H                |   122.36
    6 C                |  14 C                |  16 C                |   109.97
   10 C                |  14 C                |  13 H                |   124.98
   10 C                |  14 C                |  16 C                |    88.77
   13 H                |  14 C                |  16 C                |   115.47
    8 C                |  16 C                |  12 C                |    88.37
    8 C                |  16 C                |  14 C                |   109.97
    8 C                |  16 C                |  15 H                |   122.36
   12 C                |  16 C                |  14 C                |    88.77
   12 C                |  16 C                |  15 H                |   124.98
   14 C                |  16 C                |  15 H                |   115.47
 ------------------------------------------------------------------------------
                            number of included internuclear angles:         42
 ==============================================================================



  library name resolved from: environment
  library file name is: </home/vladimir/bin/nwchem-6.8/src/basis/libraries/>
  
                      Basis "ao basis" -> "" (spherical)
                      -----
  H (Hydrogen)
  ------------
            Exponent  Coefficients 
       -------------- ---------------------------------------------------------
  1 S  3.38700000E+01  0.006068
  1 S  5.09500000E+00  0.045308
  1 S  1.15900000E+00  0.202822

  2 S  3.25800000E-01  1.000000

  3 S  1.02700000E-01  1.000000

  4 P  1.40700000E+00  1.000000

  5 P  3.88000000E-01  1.000000

  6 D  1.05700000E+00  1.000000

  C (Carbon)
  ----------
            Exponent  Coefficients 
       -------------- ---------------------------------------------------------
  1 S  8.23600000E+03  0.000531
  1 S  1.23500000E+03  0.004108
  1 S  2.80800000E+02  0.021087
  1 S  7.92700000E+01  0.081853
  1 S  2.55900000E+01  0.234817
  1 S  8.99700000E+00  0.434401
  1 S  3.31900000E+00  0.346129
  1 S  3.64300000E-01 -0.008983

  2 S  8.23600000E+03 -0.000113
  2 S  1.23500000E+03 -0.000878
  2 S  2.80800000E+02 -0.004540
  2 S  7.92700000E+01 -0.018133
  2 S  2.55900000E+01 -0.055760
  2 S  8.99700000E+00 -0.126895
  2 S  3.31900000E+00 -0.170352
  2 S  3.64300000E-01  0.598684

  3 S  9.05900000E-01  1.000000

  4 S  1.28500000E-01  1.000000

  5 P  1.87100000E+01  0.014031
  5 P  4.13300000E+00  0.086866
  5 P  1.20000000E+00  0.290216

  6 P  3.82700000E-01  1.000000

  7 P  1.20900000E-01  1.000000

  8 D  1.09700000E+00  1.000000

  9 D  3.18000000E-01  1.000000

 10 F  7.61000000E-01  1.000000



 Summary of "ao basis" -> "" (spherical)
 ------------------------------------------------------------------------------
       Tag                 Description            Shells   Functions and Types
 ---------------- ------------------------------  ------  ---------------------
 H                          cc-pVTZ                  6       14   3s2p1d
 C                          cc-pVTZ                 10       30   4s3p2d1f




                           NWChem Geometry Optimization
                           ----------------------------




               cubane T-biradical MP2/cc-pVTZ geometry optimization


 maximum gradient threshold         (gmax) =   0.000450
 rms gradient threshold             (grms) =   0.000300
 maximum cartesian step threshold   (xmax) =   0.001800
 rms cartesian step threshold       (xrms) =   0.001200
 fixed trust radius                (trust) =   0.300000
 maximum step size to saddle      (sadstp) =   0.100000
 energy precision                  (eprec) =   1.0D-07
 maximum number of steps          (nptopt) =   20
 initial hessian option           (inhess) =    0
 line search option               (linopt) =    1
 hessian update option            (modupd) =    1
 saddle point option              (modsad) =    0
 initial eigen-mode to follow     (moddir) =    0
 initial variable to follow       (vardir) =    0
 follow first negative mode     (firstneg) =    T
 apply conjugacy                    (opcg) =    F
 source of zmatrix                         =   autoz   


          -------------------
          Energy Minimization
          -------------------


 Names of Z-matrix variables 
    1              2              3              4              5         
    6              7              8              9             10         
   11             12             13             14             15         
   16             17             18             19             20         
   21             22             23             24             25         
   26             27             28             29             30         
   31             32             33             34             35         
   36             37             38             39             40         
   41             42             43             44             45         
   46             47             48             49             50         
   51             52             53             54             55         
   56             57             58             59             60         
   61             62             63             64             65         
   66             67             68             69             70         
   71             72             73             74             75         
   76             77             78             79             80         
   81             82             83             84             85         
   86             87             88             89             90         
   91             92             93             94             95         
   96             97             98             99            100         
  101            102            103            104            105         
  106            107            108            109            110         
  111            112            113            114            115         
  116            117            118            119            120         
  121            122            123            124            125         
  126            127            128            129            130         
  131            132            133            134            135         
  136            137            138            139            140         
  141            142            143            144            145         
  146            147            148         

 Variables with the same non-blank name are constrained to be equal


 Using diagonal initial Hessian 
 Scaling for Hessian diagonals: bonds = 1.00  angles = 0.25  torsions = 0.10

          --------
          Step   0
          --------


                         Geometry "geometry" -> "geometry"
                         ---------------------------------

 Output coordinates in angstroms (scale by  1.889725989 to convert to a.u.)

  No.       Tag          Charge          X              Y              Z
 ---- ---------------- ---------- -------------- -------------- --------------
    1 H                    1.0000     2.04590157    -1.27270098     0.01500537
    2 C                    6.0000     1.06730753    -0.80528423    -0.05619062
    3 H                    1.0000     2.04590157     1.27270098     0.01500537
    4 C                    6.0000     1.06730753     0.80528423    -0.05619062
    5 H                    1.0000     0.00000000    -1.52773530    -2.03390597
    6 C                    6.0000     0.00000000    -1.31653657    -0.97269603
    7 H                    1.0000     0.00000000     1.52773530    -2.03390597
    8 C                    6.0000     0.00000000     1.31653657    -0.97269603
    9 H                    1.0000     0.00000000    -1.44727888     1.94417541
   10 C                    6.0000     0.00000000    -0.77162098     1.09503057
   11 H                    1.0000     0.00000000     1.44727888     1.94417541
   12 C                    6.0000     0.00000000     0.77162098     1.09503057
   13 H                    1.0000    -2.04590157    -1.27270098     0.01500537
   14 C                    6.0000    -1.06730753    -0.80528423    -0.05619062
   15 H                    1.0000    -2.04590157     1.27270098     0.01500537
   16 C                    6.0000    -1.06730753     0.80528423    -0.05619062

      Atomic Mass 
      ----------- 

      H                  1.007825
      C                 12.000000


 Effective nuclear repulsion energy (a.u.)     359.9135263114

            Nuclear Dipole moment (a.u.) 
            ----------------------------
        X                 Y               Z
 ---------------- ---------------- ----------------
     0.0000000000     0.0000000000    -0.0000000000

      Symmetry information
      --------------------

 Group name             C2v       
 Group number             16
 Group order               4
 No. of unique centers     6

      Symmetry unique atoms

     1    2    5    6    9   10

                                 NWChem SCF Module
                                 -----------------


               cubane T-biradical MP2/cc-pVTZ geometry optimization



  ao basis        = "ao basis"
  functions       =   352
  atoms           =    16
  alpha electrons =    29
  beta  electrons =    27
  charge          =   0.00
  wavefunction    = UHF 
  input vectors   = atomic
  output vectors  = ./triplet.movecs
  use symmetry    = T
  symmetry adapt  = T


 Summary of "ao basis" -> "ao basis" (spherical)
 ------------------------------------------------------------------------------
       Tag                 Description            Shells   Functions and Types
 ---------------- ------------------------------  ------  ---------------------
 H                          cc-pVTZ                  6       14   3s2p1d
 C                          cc-pVTZ                 10       30   4s3p2d1f


      Symmetry analysis of basis
      --------------------------

        a1        104
        a2         72
        b1         72
        b2        104


 Forming initial guess at       0.4s


      Superposition of Atomic Density Guess
      -------------------------------------

 Sum of atomic energies:        -305.36244765

      Non-variational initial energy
      ------------------------------

 Total energy =    -311.553044
 1-e energy   =   -1122.731558
 2-e energy   =     451.264988
 HOMO         =      -0.176157
 LUMO         =      -0.120756


   Symmetry analysis of molecular orbitals - initial alpha
   -------------------------------------------------------

  Numbering of irreducible representations: 

     1 a1          2 a2          3 b1          4 b2      

  Orbital symmetries:

     1 a1          2 b2          3 b1          4 a1          5 a2      
     6 b2          7 a1          8 b2          9 a1         10 b2      
    11 b1         12 a1         13 b2         14 a2         15 a1      
    16 a1         17 b2         18 a1         19 b2         20 b1      
    21 a1         22 b1         23 b1         24 a2         25 a1      
    26 b2         27 a2         28 b2         29 a1         30 a1      
    31 b1         32 a1         33 b2         34 a1         35 a2      
    36 b2         37 b1         38 a1         39 b2      


   Symmetry analysis of molecular orbitals - initial beta
   ------------------------------------------------------

  Numbering of irreducible representations: 

     1 a1          2 a2          3 b1          4 b2      

  Orbital symmetries:

     1 a1          2 b2          3 b1          4 a1          5 a2      
     6 b2          7 a1          8 b2          9 a1         10 b2      
    11 b1         12 a1         13 b2         14 a2         15 a1      
    16 a1         17 b2         18 a1         19 b2         20 b1      
    21 a1         22 b1         23 b1         24 a2         25 a1      
    26 b2         27 a2         28 b2         29 a1         30 a1      
    31 b1         32 a1         33 b2         34 a1         35 a2      
    36 b2         37 b1         38 a1         39 b2      


 Starting SCF solution at       3.8s



 ----------------------------------------------
         Quadratically convergent UHF

 Convergence threshold     :          1.000E-06
 Maximum no. of iterations :           30
 Integral*density screening:          1.000E-08
 ----------------------------------------------


              iter       energy          gnorm     gmax       time
             ----- ------------------- --------- --------- --------
                 1     -307.3294400353  7.23D-01  1.11D-01     30.9
                 2     -307.4464445699  2.26D-01  3.39D-02     82.0
                 3     -307.4561594577  1.42D-02  1.80D-03    174.7
                 4     -307.4562385993  1.56D-04  2.30D-05    338.6
                 5     -307.4562386125  8.67D-07  1.44D-07    592.9


       Final UHF  results 
       ------------------ 

         Total SCF energy =   -307.456238612501
      One electron energy =  -1128.868419609359
      Two electron energy =    461.498654685492
 Nuclear repulsion energy =    359.913526311366

                       Sz =      1.0000
                 Sz(Sz+1) =      2.0000
                      S^2 =      2.0238

        Time for solution =    588.1s



       Symmetry analysis of molecular orbitals - alpha
       -----------------------------------------------

  Numbering of irreducible representations: 

     1 a1          2 a2          3 b1          4 b2      

  Orbital symmetries:

     1 a1          2 b1          3 b2          4 a2          5 a1      
     6 b2          7 a1          8 b2          9 a1         10 b2      
    11 b1         12 a1         13 b2         14 a2         15 a1      
    16 a1         17 b2         18 a1         19 b2         20 b1      
    21 a1         22 b1         23 a2         24 b1         25 b2      
    26 a1         27 a2         28 b2         29 a1         30 a1      
    31 a1         32 b1         33 b2         34 a1         35 a2      
    36 b2         37 b2         38 a1         39 b1      


       Symmetry analysis of molecular orbitals - beta
       ----------------------------------------------

  Numbering of irreducible representations: 

     1 a1          2 a2          3 b1          4 b2      

  Orbital symmetries:

     1 a1          2 b1          3 b2          4 a2          5 a1      
     6 b2          7 b2          8 a1          9 a1         10 b2      
    11 b1         12 a1         13 a2         14 b2         15 a1      
    16 a1         17 b2         18 a1         19 b2         20 b1      
    21 b1         22 a1         23 a2         24 b1         25 b2      
    26 a1         27 a2         28 b2         29 a1         30 a1      
    31 b1         32 a1         33 b2         34 a1         35 a2      
    36 b2         37 b2         38 a1         39 b1      

          Final alpha eigenvalues
          -----------------------

              1      
    1  -11.2297
    2  -11.2295
    3  -11.2293
    4  -11.2290
    5  -11.2280
    6  -11.2280
    7  -11.2263
    8  -11.2257
    9   -1.2348
   10   -1.0634
   11   -0.9674
   12   -0.9546
   13   -0.8105
   14   -0.7907
   15   -0.7725
   16   -0.7102
   17   -0.6576
   18   -0.6374
   19   -0.6174
   20   -0.5782
   21   -0.5531
   22   -0.5309
   23   -0.4547
   24   -0.4405
   25   -0.4148
   26   -0.4142
   27   -0.3819
   28   -0.3662
   29   -0.2992
   30    0.1465
   31    0.1597
   32    0.1633
   33    0.1807
   34    0.1920
   35    0.1998
   36    0.2048
   37    0.2275
   38    0.2329
   39    0.2424

          Final beta eigenvalues
          ----------------------

              1      
    1  -11.2301
    2  -11.2301
    3  -11.2297
    4  -11.2297
    5  -11.2250
    6  -11.2245
    7  -11.2044
    8  -11.2044
    9   -1.2167
   10   -1.0230
   11   -0.9599
   12   -0.9150
   13   -0.7878
   14   -0.7719
   15   -0.7375
   16   -0.6985
   17   -0.6439
   18   -0.6103
   19   -0.6089
   20   -0.5730
   21   -0.5216
   22   -0.4976
   23   -0.4399
   24   -0.4228
   25   -0.4060
   26   -0.4030
   27   -0.3803
   28    0.1145
   29    0.1315
   30    0.1527
   31    0.1643
   32    0.1735
   33    0.1904
   34    0.1963
   35    0.2018
   36    0.2092
   37    0.2315
   38    0.2384
   39    0.2436

                    UHF Final Alpha Molecular Orbital Analysis
                    ------------------------------------------

 Vector    9  Occ=1.000000D+00  E=-1.234791D+00  Symmetry=a1
              MO Center= -5.6D-17, -8.0D-17,  1.1D-01, r^2= 1.8D+00
   Bfn.  Coefficient  Atom+Function         Bfn.  Coefficient  Atom+Function  
  ----- ------------  ---------------      ----- ------------  ---------------
   192      0.181460  10 C  s               236      0.181460  12 C  s         
    16      0.169271   2 C  s                60      0.169271   4 C  s         
   280      0.169271  14 C  s               324      0.169271  16 C  s         

 Vector   10  Occ=1.000000D+00  E=-1.063381D+00  Symmetry=b2
              MO Center=  1.2D-14, -6.6D-15, -2.5D-01, r^2= 2.6D+00
   Bfn.  Coefficient  Atom+Function         Bfn.  Coefficient  Atom+Function  
  ----- ------------  ---------------      ----- ------------  ---------------
   104      0.242765   6 C  s               148     -0.242765   8 C  s         
    16      0.155409   2 C  s                60     -0.155409   4 C  s         
   280      0.155409  14 C  s               324     -0.155409  16 C  s         

 Vector   11  Occ=1.000000D+00  E=-9.673936D-01  Symmetry=b1
              MO Center= -1.1D-16,  6.6D-17, -6.0D-04, r^2= 2.8D+00
   Bfn.  Coefficient  Atom+Function         Bfn.  Coefficient  Atom+Function  
  ----- ------------  ---------------      ----- ------------  ---------------
    16      0.238453   2 C  s                60      0.238453   4 C  s         
   280     -0.238453  14 C  s               324     -0.238453  16 C  s         

 Vector   12  Occ=1.000000D+00  E=-9.546492D-01  Symmetry=a1
              MO Center=  1.7D-16,  3.2D-15,  1.7D-02, r^2= 3.0D+00
   Bfn.  Coefficient  Atom+Function         Bfn.  Coefficient  Atom+Function  
  ----- ------------  ---------------      ----- ------------  ---------------
   104      0.239243   6 C  s               148      0.239243   8 C  s         
   192     -0.234198  10 C  s               236     -0.234198  12 C  s         

 Vector   13  Occ=1.000000D+00  E=-8.104586D-01  Symmetry=b2
              MO Center=  1.4D-13,  1.5D-14,  4.5D-03, r^2= 4.1D+00
   Bfn.  Coefficient  Atom+Function         Bfn.  Coefficient  Atom+Function  
  ----- ------------  ---------------      ----- ------------  ---------------
   192     -0.225754  10 C  s               236      0.225754  12 C  s         
   104      0.219391   6 C  s               148     -0.219391   8 C  s         
   194     -0.166955  10 C  s               238      0.166955  12 C  s         
   106      0.164776   6 C  s               150     -0.164776   8 C  s         

 Vector   14  Occ=1.000000D+00  E=-7.906622D-01  Symmetry=a2
              MO Center= -1.0D-13,  3.8D-14, -1.0D-01, r^2= 3.9D+00
   Bfn.  Coefficient  Atom+Function         Bfn.  Coefficient  Atom+Function  
  ----- ------------  ---------------      ----- ------------  ---------------
    16      0.214335   2 C  s                60     -0.214335   4 C  s         
   280     -0.214335  14 C  s               324      0.214335  16 C  s         
    18      0.150448   2 C  s                62     -0.150448   4 C  s         
   282     -0.150448  14 C  s               326      0.150448  16 C  s         

 Vector   15  Occ=1.000000D+00  E=-7.724847D-01  Symmetry=a1
              MO Center=  7.0D-14, -1.0D-14, -3.4D-02, r^2= 4.1D+00
   Bfn.  Coefficient  Atom+Function         Bfn.  Coefficient  Atom+Function  
  ----- ------------  ---------------      ----- ------------  ---------------
   104      0.170416   6 C  s               148      0.170416   8 C  s         

 Vector   16  Occ=1.000000D+00  E=-7.102056D-01  Symmetry=a1
              MO Center=  1.1D-16,  9.9D-17,  2.4D-01, r^2= 4.2D+00
   Bfn.  Coefficient  Atom+Function         Bfn.  Coefficient  Atom+Function  
  ----- ------------  ---------------      ----- ------------  ---------------
    22      0.104050   2 C  px               66      0.104050   4 C  px        
   286     -0.104050  14 C  px              330     -0.104050  16 C  px        
     2      0.094200   1 H  s                46      0.094200   3 H  s         
   266      0.094200  13 H  s               310      0.094200  15 H  s         

 Vector   17  Occ=1.000000D+00  E=-6.576286D-01  Symmetry=b2
              MO Center= -2.1D-15, -4.9D-16,  1.6D-01, r^2= 5.1D+00
   Bfn.  Coefficient  Atom+Function         Bfn.  Coefficient  Atom+Function  
  ----- ------------  ---------------      ----- ------------  ---------------
   192      0.144404  10 C  s               236     -0.144404  12 C  s         

 Vector   18  Occ=1.000000D+00  E=-6.373737D-01  Symmetry=a1
              MO Center= -1.7D-15,  2.4D-14, -4.1D-01, r^2= 3.4D+00
   Bfn.  Coefficient  Atom+Function         Bfn.  Coefficient  Atom+Function  
  ----- ------------  ---------------      ----- ------------  ---------------
   112      0.170779   6 C  pz              156      0.170779   8 C  pz        

 Vector   19  Occ=1.000000D+00  E=-6.173690D-01  Symmetry=b2
              MO Center=  3.8D-15, -4.3D-16, -1.1D-01, r^2= 4.4D+00
   Bfn.  Coefficient  Atom+Function         Bfn.  Coefficient  Atom+Function  
  ----- ------------  ---------------      ----- ------------  ---------------
    22      0.125432   2 C  px               66     -0.125432   4 C  px        
   286     -0.125432  14 C  px              330      0.125432  16 C  px        
     2      0.120123   1 H  s                46     -0.120123   3 H  s         
   266      0.120123  13 H  s               310     -0.120123  15 H  s         

 Vector   20  Occ=1.000000D+00  E=-5.781894D-01  Symmetry=b1
              MO Center= -3.5D-15, -1.8D-15,  9.0D-02, r^2= 3.1D+00
   Bfn.  Coefficient  Atom+Function         Bfn.  Coefficient  Atom+Function  
  ----- ------------  ---------------      ----- ------------  ---------------
   198      0.146574  10 C  px              242      0.146574  12 C  px        

 Vector   21  Occ=1.000000D+00  E=-5.531378D-01  Symmetry=a1
              MO Center=  6.5D-14, -1.1D-14,  2.3D-01, r^2= 3.8D+00
   Bfn.  Coefficient  Atom+Function         Bfn.  Coefficient  Atom+Function  
  ----- ------------  ---------------      ----- ------------  ---------------
   111      0.164675   6 C  py              155     -0.164675   8 C  py        

 Vector   22  Occ=1.000000D+00  E=-5.309123D-01  Symmetry=b1
              MO Center= -1.2D-13, -5.9D-14, -2.4D-01, r^2= 3.7D+00
   Bfn.  Coefficient  Atom+Function         Bfn.  Coefficient  Atom+Function  
  ----- ------------  ---------------      ----- ------------  ---------------
   110      0.147418   6 C  px              154      0.147418   8 C  px        

 Vector   23  Occ=1.000000D+00  E=-4.547139D-01  Symmetry=a2
              MO Center=  1.8D-13,  2.6D-13, -4.0D-01, r^2= 3.5D+00
   Bfn.  Coefficient  Atom+Function         Bfn.  Coefficient  Atom+Function  
  ----- ------------  ---------------      ----- ------------  ---------------
   110      0.211551   6 C  px              154     -0.211551   8 C  px        
   107      0.158520   6 C  px              151     -0.158520   8 C  px        

 Vector   24  Occ=1.000000D+00  E=-4.405096D-01  Symmetry=b1
              MO Center=  3.6D-14, -1.3D-13,  6.3D-02, r^2= 2.8D+00
   Bfn.  Coefficient  Atom+Function         Bfn.  Coefficient  Atom+Function  
  ----- ------------  ---------------      ----- ------------  ---------------
    23      0.176861   2 C  py               67     -0.176861   4 C  py        
   287     -0.176861  14 C  py              331      0.176861  16 C  py        

 Vector   25  Occ=1.000000D+00  E=-4.148306D-01  Symmetry=b2
              MO Center=  6.6D-14,  3.4D-15,  1.9D-01, r^2= 3.6D+00
   Bfn.  Coefficient  Atom+Function         Bfn.  Coefficient  Atom+Function  
  ----- ------------  ---------------      ----- ------------  ---------------
   194      0.194147  10 C  s               238     -0.194147  12 C  s         
   200     -0.178065  10 C  pz              244      0.178065  12 C  pz        
   203     -0.161051  10 C  pz              247      0.161051  12 C  pz        

 Vector   26  Occ=1.000000D+00  E=-4.141506D-01  Symmetry=a1
              MO Center= -7.8D-15, -8.5D-15,  4.7D-01, r^2= 3.0D+00
   Bfn.  Coefficient  Atom+Function         Bfn.  Coefficient  Atom+Function  
  ----- ------------  ---------------      ----- ------------  ---------------
   199      0.230106  10 C  py              243     -0.230106  12 C  py        
   196      0.169150  10 C  py              240     -0.169150  12 C  py        

 Vector   27  Occ=1.000000D+00  E=-3.818712D-01  Symmetry=a2
              MO Center= -4.2D-13, -6.1D-14,  4.6D-01, r^2= 2.9D+00
   Bfn.  Coefficient  Atom+Function         Bfn.  Coefficient  Atom+Function  
  ----- ------------  ---------------      ----- ------------  ---------------
   198      0.216502  10 C  px              242     -0.216502  12 C  px        
   195      0.156420  10 C  px              239     -0.156420  12 C  px        

 Vector   28  Occ=1.000000D+00  E=-3.662378D-01  Symmetry=b2
              MO Center= -1.0D-13, -6.6D-14, -8.6D-01, r^2= 3.3D+00
   Bfn.  Coefficient  Atom+Function         Bfn.  Coefficient  Atom+Function  
  ----- ------------  ---------------      ----- ------------  ---------------
   111      0.312019   6 C  py              155      0.312019   8 C  py        
   114      0.280800   6 C  py              158      0.280800   8 C  py        
   108      0.215586   6 C  py              152      0.215586   8 C  py        

 Vector   29  Occ=1.000000D+00  E=-2.992082D-01  Symmetry=a1
              MO Center= -9.9D-14, -2.0D-15, -5.3D-01, r^2= 3.7D+00
   Bfn.  Coefficient  Atom+Function         Bfn.  Coefficient  Atom+Function  
  ----- ------------  ---------------      ----- ------------  ---------------
   114      0.288828   6 C  py              158     -0.288828   8 C  py        
   111      0.248511   6 C  py              155     -0.248511   8 C  py        
   108      0.170821   6 C  py              152     -0.170821   8 C  py        

 Vector   30  Occ=0.000000D+00  E= 1.465349D-01  Symmetry=a1
              MO Center=  1.6D-15, -4.1D-16,  3.1D-01, r^2= 1.2D+01
   Bfn.  Coefficient  Atom+Function         Bfn.  Coefficient  Atom+Function  
  ----- ------------  ---------------      ----- ------------  ---------------
   179      1.017785   9 H  s               223      1.017785  11 H  s         
     3      0.999121   1 H  s                47      0.999121   3 H  s         
   267      0.999121  13 H  s               311      0.999121  15 H  s         
    18     -0.943235   2 C  s                62     -0.943235   4 C  s         
   282     -0.943235  14 C  s               326     -0.943235  16 C  s         

 Vector   31  Occ=0.000000D+00  E= 1.597174D-01  Symmetry=a1
              MO Center=  2.1D-15, -2.0D-17, -9.3D-01, r^2= 1.0D+01
   Bfn.  Coefficient  Atom+Function         Bfn.  Coefficient  Atom+Function  
  ----- ------------  ---------------      ----- ------------  ---------------
   194      1.637023  10 C  s               238      1.637023  12 C  s         
    91      1.511916   5 H  s               135      1.511916   7 H  s         
   106     -1.344785   6 C  s               150     -1.344785   8 C  s         
   179     -0.840010   9 H  s               223     -0.840010  11 H  s         
   115      0.806550   6 C  pz              159      0.806550   8 C  pz        

 Vector   32  Occ=0.000000D+00  E= 1.632725D-01  Symmetry=b1
              MO Center=  8.7D-15,  8.2D-16,  9.1D-02, r^2= 1.2D+01
   Bfn.  Coefficient  Atom+Function         Bfn.  Coefficient  Atom+Function  
  ----- ------------  ---------------      ----- ------------  ---------------
    18      1.516550   2 C  s                62      1.516550   4 C  s         
   282     -1.516550  14 C  s               326     -1.516550  16 C  s         
     3     -1.354092   1 H  s                47     -1.354092   3 H  s         
   267      1.354092  13 H  s               311      1.354092  15 H  s         
    25      0.585866   2 C  px               69      0.585866   4 C  px        

 Vector   33  Occ=0.000000D+00  E= 1.807332D-01  Symmetry=b2
              MO Center=  6.7D-16, -3.3D-15,  1.1D+00, r^2= 1.2D+01
   Bfn.  Coefficient  Atom+Function         Bfn.  Coefficient  Atom+Function  
  ----- ------------  ---------------      ----- ------------  ---------------
   179      1.856899   9 H  s               223     -1.856899  11 H  s         
   203     -1.273295  10 C  pz              247      1.273295  12 C  pz        
   106     -1.142568   6 C  s               150      1.142568   8 C  s         
     3      1.000505   1 H  s                47     -1.000505   3 H  s         
   267      1.000505  13 H  s               311     -1.000505  15 H  s         

 Vector   34  Occ=0.000000D+00  E= 1.920205D-01  Symmetry=a1
              MO Center=  2.6D-12,  5.5D-14,  4.3D-01, r^2= 1.3D+01
   Bfn.  Coefficient  Atom+Function         Bfn.  Coefficient  Atom+Function  
  ----- ------------  ---------------      ----- ------------  ---------------
   179      1.585151   9 H  s               223      1.585151  11 H  s         
   194     -1.212063  10 C  s               238     -1.212063  12 C  s         
    91      1.169475   5 H  s               135      1.169475   7 H  s         
     3     -1.129477   1 H  s                47     -1.129477   3 H  s         
   267     -1.129477  13 H  s               311     -1.129477  15 H  s         

 Vector   35  Occ=0.000000D+00  E= 1.997673D-01  Symmetry=a2
              MO Center=  6.7D-16, -1.2D-15,  5.9D-02, r^2= 1.3D+01
   Bfn.  Coefficient  Atom+Function         Bfn.  Coefficient  Atom+Function  
  ----- ------------  ---------------      ----- ------------  ---------------
     3      1.990054   1 H  s                47     -1.990054   3 H  s         
   267     -1.990054  13 H  s               311      1.990054  15 H  s         
    18     -1.810644   2 C  s                62      1.810644   4 C  s         
   282      1.810644  14 C  s               326     -1.810644  16 C  s         
    25     -1.635663   2 C  px               69      1.635663   4 C  px        

 Vector   36  Occ=0.000000D+00  E= 2.048163D-01  Symmetry=b2
              MO Center= -3.7D-15,  2.4D-14, -8.4D-01, r^2= 1.3D+01
   Bfn.  Coefficient  Atom+Function         Bfn.  Coefficient  Atom+Function  
  ----- ------------  ---------------      ----- ------------  ---------------
   106      3.751059   6 C  s               150     -3.751059   8 C  s         
    18     -2.255302   2 C  s                62      2.255302   4 C  s         
   282     -2.255302  14 C  s               326      2.255302  16 C  s         
   203     -2.064378  10 C  pz              247      2.064378  12 C  pz        
   179      1.876931   9 H  s               223     -1.876931  11 H  s         

 Vector   37  Occ=0.000000D+00  E= 2.275073D-01  Symmetry=b2
              MO Center=  8.7D-15, -9.0D-14, -4.1D-01, r^2= 1.4D+01
   Bfn.  Coefficient  Atom+Function         Bfn.  Coefficient  Atom+Function  
  ----- ------------  ---------------      ----- ------------  ---------------
   194      3.462423  10 C  s               238     -3.462423  12 C  s         
    25      2.435006   2 C  px               69     -2.435006   4 C  px        
   289     -2.435006  14 C  px              333      2.435006  16 C  px        
   203     -2.202343  10 C  pz              247      2.202343  12 C  pz        
    18     -2.094674   2 C  s                62      2.094674   4 C  s         

 Vector   38  Occ=0.000000D+00  E= 2.329130D-01  Symmetry=a1
              MO Center= -2.8D-15,  1.7D-14,  3.4D-01, r^2= 8.4D+00
   Bfn.  Coefficient  Atom+Function         Bfn.  Coefficient  Atom+Function  
  ----- ------------  ---------------      ----- ------------  ---------------
   203      1.643120  10 C  pz              247      1.643120  12 C  pz        
   179     -1.363854   9 H  s               223     -1.363854  11 H  s         
   194     -1.346719  10 C  s               238     -1.346719  12 C  s         
   115      1.164380   6 C  pz              159      1.164380   8 C  pz        
    91      1.121968   5 H  s               135      1.121968   7 H  s         

 Vector   39  Occ=0.000000D+00  E= 2.424493D-01  Symmetry=b1
              MO Center=  1.5D-12,  2.1D-13,  3.1D-01, r^2= 7.8D+00
   Bfn.  Coefficient  Atom+Function         Bfn.  Coefficient  Atom+Function  
  ----- ------------  ---------------      ----- ------------  ---------------
    25      1.425496   2 C  px               69      1.425496   4 C  px        
   289      1.425496  14 C  px              333      1.425496  16 C  px        
    18     -1.254908   2 C  s                62     -1.254908   4 C  s         
   282      1.254908  14 C  s               326      1.254908  16 C  s         
     3     -1.189689   1 H  s                47     -1.189689   3 H  s         

 Vector   40  Occ=0.000000D+00  E= 2.914225D-01  Symmetry=b2
              MO Center= -5.2D-15, -1.4D-14,  8.4D-01, r^2= 6.1D+00
   Bfn.  Coefficient  Atom+Function         Bfn.  Coefficient  Atom+Function  
  ----- ------------  ---------------      ----- ------------  ---------------
   194      3.648483  10 C  s               238     -3.648483  12 C  s         
   202      2.744483  10 C  py              246      2.744483  12 C  py        
   179      1.235216   9 H  s               223     -1.235216  11 H  s         
    18      0.864527   2 C  s                62     -0.864527   4 C  s         
   282      0.864527  14 C  s               326     -0.864527  16 C  s         

 Vector   41  Occ=0.000000D+00  E= 3.317010D-01  Symmetry=a1
              MO Center= -1.3D-13, -1.8D-14, -4.6D-01, r^2= 7.8D+00
   Bfn.  Coefficient  Atom+Function         Bfn.  Coefficient  Atom+Function  
  ----- ------------  ---------------      ----- ------------  ---------------
   106      4.932986   6 C  s               150      4.932986   8 C  s         
    18     -4.476254   2 C  s                62     -4.476254   4 C  s         
   282     -4.476254  14 C  s               326     -4.476254  16 C  s         
   194      3.713977  10 C  s               238      3.713977  12 C  s         
   115      2.432897   6 C  pz              159      2.432897   8 C  pz        

 Vector   42  Occ=0.000000D+00  E= 3.415524D-01  Symmetry=a2
              MO Center= -3.4D-15, -3.4D-15, -9.7D-02, r^2= 7.2D+00
   Bfn.  Coefficient  Atom+Function         Bfn.  Coefficient  Atom+Function  
  ----- ------------  ---------------      ----- ------------  ---------------
    18      3.463464   2 C  s                62     -3.463464   4 C  s         
   282     -3.463464  14 C  s               326      3.463464  16 C  s         
    26      2.431093   2 C  py               70      2.431093   4 C  py        
   290     -2.431093  14 C  py              334     -2.431093  16 C  py        
     3      1.273343   1 H  s                47     -1.273343   3 H  s         

 Vector   43  Occ=0.000000D+00  E= 3.485532D-01  Symmetry=b1
              MO Center= -4.1D-14, -4.7D-15, -5.4D-01, r^2= 6.4D+00
   Bfn.  Coefficient  Atom+Function         Bfn.  Coefficient  Atom+Function  
  ----- ------------  ---------------      ----- ------------  ---------------
   113      2.104779   6 C  px              157      2.104779   8 C  px        
    18     -1.229762   2 C  s                62     -1.229762   4 C  s         
   282      1.229762  14 C  s               326      1.229762  16 C  s         
    27      1.149128   2 C  pz               71      1.149128   4 C  pz        
   291     -1.149128  14 C  pz              335     -1.149128  16 C  pz        

 Vector   44  Occ=0.000000D+00  E= 3.487586D-01  Symmetry=a2
              MO Center= -4.8D-14, -1.6D-13, -6.3D-01, r^2= 8.3D+00
   Bfn.  Coefficient  Atom+Function         Bfn.  Coefficient  Atom+Function  
  ----- ------------  ---------------      ----- ------------  ---------------
    18      4.760970   2 C  s                62     -4.760970   4 C  s         
   282     -4.760970  14 C  s               326      4.760970  16 C  s         
    25     -2.845062   2 C  px               69      2.845062   4 C  px        
   289     -2.845062  14 C  px              333      2.845062  16 C  px        
   113     -1.969980   6 C  px              157      1.969980   8 C  px        

 Vector   45  Occ=0.000000D+00  E= 3.508837D-01  Symmetry=b2
              MO Center=  7.8D-15, -2.4D-15, -3.5D-01, r^2= 8.5D+00
   Bfn.  Coefficient  Atom+Function         Bfn.  Coefficient  Atom+Function  
  ----- ------------  ---------------      ----- ------------  ---------------
   194      5.441146  10 C  s               238     -5.441146  12 C  s         
   106     -3.893224   6 C  s               150      3.893224   8 C  s         
   203     -2.720431  10 C  pz              247      2.720431  12 C  pz        
   115     -2.091929   6 C  pz              159      2.091929   8 C  pz        
    27     -1.964141   2 C  pz               71      1.964141   4 C  pz        

 Vector   46  Occ=0.000000D+00  E= 3.783975D-01  Symmetry=a1
              MO Center=  2.4D-14,  1.3D-15,  2.4D-01, r^2= 6.5D+00
   Bfn.  Coefficient  Atom+Function         Bfn.  Coefficient  Atom+Function  
  ----- ------------  ---------------      ----- ------------  ---------------
    90      0.754149   5 H  s               134      0.754149   7 H  s         
   115      0.500114   6 C  pz              159      0.500114   8 C  pz        
   202      0.500884  10 C  py              246     -0.500884  12 C  py        
    18     -0.436229   2 C  s                62     -0.436229   4 C  s         
   282     -0.436229  14 C  s               326     -0.436229  16 C  s         

 Vector   47  Occ=0.000000D+00  E= 3.801256D-01  Symmetry=b1
              MO Center= -4.1D-14,  7.9D-16,  1.3D-01, r^2= 6.5D+00
   Bfn.  Coefficient  Atom+Function         Bfn.  Coefficient  Atom+Function  
  ----- ------------  ---------------      ----- ------------  ---------------
    27      0.695161   2 C  pz               71      0.695161   4 C  pz        
   291     -0.695161  14 C  pz              335     -0.695161  16 C  pz        
   198     -0.342844  10 C  px              242     -0.342844  12 C  px        
    26      0.326977   2 C  py               70     -0.326977   4 C  py        
   290     -0.326977  14 C  py              334      0.326977  16 C  py        

 Vector   48  Occ=0.000000D+00  E= 4.063684D-01  Symmetry=b2
              MO Center=  4.8D-13, -3.6D-13, -6.9D-01, r^2= 8.6D+00
   Bfn.  Coefficient  Atom+Function         Bfn.  Coefficient  Atom+Function  
  ----- ------------  ---------------      ----- ------------  ---------------
   194     10.068194  10 C  s               238    -10.068194  12 C  s         
    18     -7.127336   2 C  s                62      7.127336   4 C  s         
   282     -7.127336  14 C  s               326      7.127336  16 C  s         
   106      5.073455   6 C  s               150     -5.073455   8 C  s         
   203     -3.743375  10 C  pz              247      3.743375  12 C  pz        

 Vector   49  Occ=0.000000D+00  E= 4.095109D-01  Symmetry=a1
              MO Center= -7.7D-14, -3.8D-14,  6.0D-01, r^2= 7.0D+00
   Bfn.  Coefficient  Atom+Function         Bfn.  Coefficient  Atom+Function  
  ----- ------------  ---------------      ----- ------------  ---------------
    18      1.468607   2 C  s                62      1.468607   4 C  s         
   282      1.468607  14 C  s               326      1.468607  16 C  s         
   203      1.241154  10 C  pz              247      1.241154  12 C  pz        
   115     -1.011111   6 C  pz              159     -1.011111   8 C  pz        
    90     -0.844153   5 H  s               134     -0.844153   7 H  s         

 Vector   50  Occ=0.000000D+00  E= 4.232201D-01  Symmetry=b1
              MO Center= -2.7D-14, -3.2D-15,  2.0D-01, r^2= 7.7D+00
   Bfn.  Coefficient  Atom+Function         Bfn.  Coefficient  Atom+Function  
  ----- ------------  ---------------      ----- ------------  ---------------
    26      0.780142   2 C  py               70     -0.780142   4 C  py        
   290     -0.780142  14 C  py              334      0.780142  16 C  py        
   201     -0.574682  10 C  px              245     -0.574682  12 C  px        
    25      0.420294   2 C  px               69      0.420294   4 C  px        
   289      0.420294  14 C  px              333      0.420294  16 C  px        

 Vector   51  Occ=0.000000D+00  E= 4.238792D-01  Symmetry=a2
              MO Center= -7.6D-14,  1.4D-15,  8.2D-01, r^2= 7.3D+00
   Bfn.  Coefficient  Atom+Function         Bfn.  Coefficient  Atom+Function  
  ----- ------------  ---------------      ----- ------------  ---------------
   201      2.482508  10 C  px              245     -2.482508  12 C  px        
   113     -1.355864   6 C  px              157      1.355864   8 C  px        
    18     -0.946635   2 C  s                62      0.946635   4 C  s         
   282      0.946635  14 C  s               326     -0.946635  16 C  s         
    27     -0.860645   2 C  pz               71      0.860645   4 C  pz        

 Vector   52  Occ=0.000000D+00  E= 4.644377D-01  Symmetry=b2
              MO Center= -8.9D-16,  2.4D-14,  3.4D-01, r^2= 7.2D+00
   Bfn.  Coefficient  Atom+Function         Bfn.  Coefficient  Atom+Function  
  ----- ------------  ---------------      ----- ------------  ---------------
   194      6.334918  10 C  s               238     -6.334918  12 C  s         
   202      4.466979  10 C  py              246      4.466979  12 C  py        
    26     -3.277673   2 C  py               70     -3.277673   4 C  py        
   290     -3.277673  14 C  py              334     -3.277673  16 C  py        
    18     -2.912633   2 C  s                62      2.912633   4 C  s         

 Vector   53  Occ=0.000000D+00  E= 4.851185D-01  Symmetry=a1
              MO Center= -5.4D-13,  3.6D-13, -7.8D-01, r^2= 8.3D+00
   Bfn.  Coefficient  Atom+Function         Bfn.  Coefficient  Atom+Function  
  ----- ------------  ---------------      ----- ------------  ---------------
   114      1.268142   6 C  py              158     -1.268142   8 C  py        
   106     -1.050083   6 C  s               150     -1.050083   8 C  s         
    26     -0.914602   2 C  py               70      0.914602   4 C  py        
   290     -0.914602  14 C  py              334      0.914602  16 C  py        
    90      0.551664   5 H  s               134      0.551664   7 H  s         

 Vector   54  Occ=0.000000D+00  E= 4.965490D-01  Symmetry=a1
              MO Center=  8.1D-13, -6.6D-13, -1.1D-01, r^2= 5.9D+00
   Bfn.  Coefficient  Atom+Function         Bfn.  Coefficient  Atom+Function  
  ----- ------------  ---------------      ----- ------------  ---------------
   194      2.048434  10 C  s               238      2.048434  12 C  s         
   203     -1.162268  10 C  pz              247     -1.162268  12 C  pz        
   202      0.794987  10 C  py              246     -0.794987  12 C  py        
    27     -0.716441   2 C  pz               71     -0.716441   4 C  pz        
   291     -0.716441  14 C  pz              335     -0.716441  16 C  pz        

 Vector   55  Occ=0.000000D+00  E= 4.967469D-01  Symmetry=a2
              MO Center= -4.4D-13,  9.7D-14, -1.5D-01, r^2= 7.5D+00
   Bfn.  Coefficient  Atom+Function         Bfn.  Coefficient  Atom+Function  
  ----- ------------  ---------------      ----- ------------  ---------------
    27      3.038799   2 C  pz               71     -3.038799   4 C  pz        
   291     -3.038799  14 C  pz              335      3.038799  16 C  pz        
   113      2.372032   6 C  px              157     -2.372032   8 C  px        
    26      2.097945   2 C  py               70      2.097945   4 C  py        
   290     -2.097945  14 C  py              334     -2.097945  16 C  py        

 Vector   56  Occ=0.000000D+00  E= 5.286818D-01  Symmetry=a1
              MO Center= -2.9D-13, -3.1D-14,  3.1D-01, r^2= 7.4D+00
   Bfn.  Coefficient  Atom+Function         Bfn.  Coefficient  Atom+Function  
  ----- ------------  ---------------      ----- ------------  ---------------
   106      3.956149   6 C  s               150      3.956149   8 C  s         
   115      1.951018   6 C  pz              159      1.951018   8 C  pz        
   203      1.815271  10 C  pz              247      1.815271  12 C  pz        
   179     -1.240704   9 H  s               223     -1.240704  11 H  s         
   114      1.116435   6 C  py              158     -1.116435   8 C  py        


                     UHF Final Beta Molecular Orbital Analysis
                     -----------------------------------------

 Vector    9  Occ=1.000000D+00  E=-1.216660D+00  Symmetry=a1
              MO Center=  2.8D-17,  6.3D-17,  2.1D-01, r^2= 1.7D+00
   Bfn.  Coefficient  Atom+Function         Bfn.  Coefficient  Atom+Function  
  ----- ------------  ---------------      ----- ------------  ---------------
   192      0.193320  10 C  s               236      0.193320  12 C  s         
    16      0.172157   2 C  s                60      0.172157   4 C  s         
   280      0.172157  14 C  s               324      0.172157  16 C  s         

 Vector   10  Occ=1.000000D+00  E=-1.023008D+00  Symmetry=b2
              MO Center= -2.8D-17, -4.0D-17, -6.3D-02, r^2= 2.5D+00
   Bfn.  Coefficient  Atom+Function         Bfn.  Coefficient  Atom+Function  
  ----- ------------  ---------------      ----- ------------  ---------------
   104      0.188204   6 C  s               148     -0.188204   8 C  s         
    16      0.171072   2 C  s                60     -0.171072   4 C  s         
   280      0.171072  14 C  s               324     -0.171072  16 C  s         
   194      0.153752  10 C  s               238     -0.153752  12 C  s         

 Vector   11  Occ=1.000000D+00  E=-9.599217D-01  Symmetry=b1
              MO Center=  0.0D+00,  9.4D-17,  6.0D-03, r^2= 2.8D+00
   Bfn.  Coefficient  Atom+Function         Bfn.  Coefficient  Atom+Function  
  ----- ------------  ---------------      ----- ------------  ---------------
    16      0.239533   2 C  s                60      0.239533   4 C  s         
   280     -0.239533  14 C  s               324     -0.239533  16 C  s         

 Vector   12  Occ=1.000000D+00  E=-9.149966D-01  Symmetry=a1
              MO Center= -5.9D-15, -2.2D-14,  2.2D-01, r^2= 2.9D+00
   Bfn.  Coefficient  Atom+Function         Bfn.  Coefficient  Atom+Function  
  ----- ------------  ---------------      ----- ------------  ---------------
   192      0.243432  10 C  s               236      0.243432  12 C  s         
   104     -0.192803   6 C  s               148     -0.192803   8 C  s         

 Vector   13  Occ=1.000000D+00  E=-7.877621D-01  Symmetry=a2
              MO Center= -9.7D-14,  2.3D-14, -9.0D-02, r^2= 3.9D+00
   Bfn.  Coefficient  Atom+Function         Bfn.  Coefficient  Atom+Function  
  ----- ------------  ---------------      ----- ------------  ---------------
    16      0.218540   2 C  s                60     -0.218540   4 C  s         
   280     -0.218540  14 C  s               324      0.218540  16 C  s         

 Vector   14  Occ=1.000000D+00  E=-7.718947D-01  Symmetry=b2
              MO Center=  8.4D-14,  2.4D-14,  1.2D-01, r^2= 4.2D+00
   Bfn.  Coefficient  Atom+Function         Bfn.  Coefficient  Atom+Function  
  ----- ------------  ---------------      ----- ------------  ---------------
   192     -0.223991  10 C  s               236      0.223991  12 C  s         
   104      0.208923   6 C  s               148     -0.208923   8 C  s         

 Vector   15  Occ=1.000000D+00  E=-7.374735D-01  Symmetry=a1
              MO Center=  0.0D+00,  1.5D-14, -2.5D-01, r^2= 4.2D+00
   Bfn.  Coefficient  Atom+Function         Bfn.  Coefficient  Atom+Function  
  ----- ------------  ---------------      ----- ------------  ---------------
   104      0.178421   6 C  s               148      0.178421   8 C  s         

 Vector   16  Occ=1.000000D+00  E=-6.985382D-01  Symmetry=a1
              MO Center=  9.4D-16, -1.5D-14,  2.9D-01, r^2= 4.3D+00
   Bfn.  Coefficient  Atom+Function         Bfn.  Coefficient  Atom+Function  
  ----- ------------  ---------------      ----- ------------  ---------------
   178      0.119208   9 H  s               222      0.119208  11 H  s         
   200      0.110893  10 C  pz              244      0.110893  12 C  pz        

 Vector   17  Occ=1.000000D+00  E=-6.438633D-01  Symmetry=b2
              MO Center= -1.7D-14, -4.4D-15, -1.9D-01, r^2= 5.2D+00
   Bfn.  Coefficient  Atom+Function         Bfn.  Coefficient  Atom+Function  
  ----- ------------  ---------------      ----- ------------  ---------------
   104     -0.120287   6 C  s               148      0.120287   8 C  s         
   192     -0.117578  10 C  s               236      0.117578  12 C  s         
    90     -0.116969   5 H  s               134      0.116969   7 H  s         
    16      0.110454   2 C  s                60     -0.110454   4 C  s         
   280      0.110454  14 C  s               324     -0.110454  16 C  s         

 Vector   18  Occ=1.000000D+00  E=-6.103492D-01  Symmetry=a1
              MO Center=  2.8D-17,  4.4D-15, -2.0D-01, r^2= 3.8D+00
   Bfn.  Coefficient  Atom+Function         Bfn.  Coefficient  Atom+Function  
  ----- ------------  ---------------      ----- ------------  ---------------
   199      0.160397  10 C  py              243     -0.160397  12 C  py        

 Vector   19  Occ=1.000000D+00  E=-6.089294D-01  Symmetry=b2
              MO Center= -1.8D-15,  1.5D-15, -1.0D-01, r^2= 4.4D+00
   Bfn.  Coefficient  Atom+Function         Bfn.  Coefficient  Atom+Function  
  ----- ------------  ---------------      ----- ------------  ---------------
    22      0.128805   2 C  px               66     -0.128805   4 C  px        
   286     -0.128805  14 C  px              330      0.128805  16 C  px        

 Vector   20  Occ=1.000000D+00  E=-5.729980D-01  Symmetry=b1
              MO Center=  6.0D-15,  5.6D-15,  1.4D-01, r^2= 3.0D+00
   Bfn.  Coefficient  Atom+Function         Bfn.  Coefficient  Atom+Function  
  ----- ------------  ---------------      ----- ------------  ---------------
   198      0.152135  10 C  px              242      0.152135  12 C  px        

 Vector   21  Occ=1.000000D+00  E=-5.216489D-01  Symmetry=b1
              MO Center= -3.5D-14, -6.6D-14, -2.3D-01, r^2= 3.6D+00
   Bfn.  Coefficient  Atom+Function         Bfn.  Coefficient  Atom+Function  
  ----- ------------  ---------------      ----- ------------  ---------------
   110     -0.134449   6 C  px              154     -0.134449   8 C  px        
    22      0.131904   2 C  px               66      0.131904   4 C  px        
   286      0.131904  14 C  px              330      0.131904  16 C  px        

 Vector   22  Occ=1.000000D+00  E=-4.975951D-01  Symmetry=a1
              MO Center=  5.9D-14, -3.6D-15,  1.9D-01, r^2= 3.3D+00
   Bfn.  Coefficient  Atom+Function         Bfn.  Coefficient  Atom+Function  
  ----- ------------  ---------------      ----- ------------  ---------------
   200      0.151466  10 C  pz              244      0.151466  12 C  pz        

 Vector   23  Occ=1.000000D+00  E=-4.399251D-01  Symmetry=a2
              MO Center=  1.1D-13,  2.3D-13, -3.7D-01, r^2= 3.4D+00
   Bfn.  Coefficient  Atom+Function         Bfn.  Coefficient  Atom+Function  
  ----- ------------  ---------------      ----- ------------  ---------------
   110      0.191938   6 C  px              154     -0.191938   8 C  px        

 Vector   24  Occ=1.000000D+00  E=-4.227548D-01  Symmetry=b1
              MO Center=  5.5D-15, -1.2D-13,  3.3D-02, r^2= 2.8D+00
   Bfn.  Coefficient  Atom+Function         Bfn.  Coefficient  Atom+Function  
  ----- ------------  ---------------      ----- ------------  ---------------
    23      0.182684   2 C  py               67     -0.182684   4 C  py        
   287     -0.182684  14 C  py              331      0.182684  16 C  py        

 Vector   25  Occ=1.000000D+00  E=-4.059596D-01  Symmetry=b2
              MO Center=  5.0D-16,  9.6D-17,  1.8D-01, r^2= 3.6D+00
   Bfn.  Coefficient  Atom+Function         Bfn.  Coefficient  Atom+Function  
  ----- ------------  ---------------      ----- ------------  ---------------
   194      0.185872  10 C  s               238     -0.185872  12 C  s         
   200     -0.173227  10 C  pz              244      0.173227  12 C  pz        
   203     -0.156771  10 C  pz              247      0.156771  12 C  pz        

 Vector   26  Occ=1.000000D+00  E=-4.029920D-01  Symmetry=a1
              MO Center=  5.3D-15,  1.0D-15,  4.8D-01, r^2= 3.0D+00
   Bfn.  Coefficient  Atom+Function         Bfn.  Coefficient  Atom+Function  
  ----- ------------  ---------------      ----- ------------  ---------------
   199      0.225932  10 C  py              243     -0.225932  12 C  py        
   196      0.166604  10 C  py              240     -0.166604  12 C  py        
   202      0.151175  10 C  py              246     -0.151175  12 C  py        

 Vector   27  Occ=1.000000D+00  E=-3.803389D-01  Symmetry=a2
              MO Center= -3.9D-13, -6.0D-14,  4.5D-01, r^2= 3.0D+00
   Bfn.  Coefficient  Atom+Function         Bfn.  Coefficient  Atom+Function  
  ----- ------------  ---------------      ----- ------------  ---------------
   198      0.213442  10 C  px              242     -0.213442  12 C  px        
   195      0.154737  10 C  px              239     -0.154737  12 C  px        

 Vector   28  Occ=0.000000D+00  E= 1.145076D-01  Symmetry=b2
              MO Center= -2.8D-14,  3.1D-14, -4.3D-01, r^2= 5.6D+00
   Bfn.  Coefficient  Atom+Function         Bfn.  Coefficient  Atom+Function  
  ----- ------------  ---------------      ----- ------------  ---------------
   194      1.533011  10 C  s               238     -1.533011  12 C  s         
   106      1.326627   6 C  s               150     -1.326627   8 C  s         
   114      0.701823   6 C  py              158      0.701823   8 C  py        
    25      0.602152   2 C  px               69     -0.602152   4 C  px        
   289     -0.602152  14 C  px              333      0.602152  16 C  px        

 Vector   29  Occ=0.000000D+00  E= 1.314935D-01  Symmetry=a1
              MO Center= -1.4D-14, -1.5D-14, -9.5D-01, r^2= 6.8D+00
   Bfn.  Coefficient  Atom+Function         Bfn.  Coefficient  Atom+Function  
  ----- ------------  ---------------      ----- ------------  ---------------
    18      1.083382   2 C  s                62      1.083382   4 C  s         
   282      1.083382  14 C  s               326      1.083382  16 C  s         
    91     -0.794607   5 H  s               135     -0.794607   7 H  s         
     3     -0.601687   1 H  s                47     -0.601687   3 H  s         
   267     -0.601687  13 H  s               311     -0.601687  15 H  s         

 Vector   30  Occ=0.000000D+00  E= 1.526699D-01  Symmetry=a1
              MO Center= -1.2D-14, -1.1D-14,  1.2D+00, r^2= 9.9D+00
   Bfn.  Coefficient  Atom+Function         Bfn.  Coefficient  Atom+Function  
  ----- ------------  ---------------      ----- ------------  ---------------
   194      1.553850  10 C  s               238      1.553850  12 C  s         
   179     -1.369596   9 H  s               223     -1.369596  11 H  s         
     3     -0.787138   1 H  s                47     -0.787138   3 H  s         
   267     -0.787138  13 H  s               311     -0.787138  15 H  s         
   202     -0.496648  10 C  py              246      0.496648  12 C  py        

 Vector   31  Occ=0.000000D+00  E= 1.642640D-01  Symmetry=b1
              MO Center= -7.4D-14, -2.5D-16,  9.4D-02, r^2= 1.2D+01
   Bfn.  Coefficient  Atom+Function         Bfn.  Coefficient  Atom+Function  
  ----- ------------  ---------------      ----- ------------  ---------------
    18      1.512063   2 C  s                62      1.512063   4 C  s         
   282     -1.512063  14 C  s               326     -1.512063  16 C  s         
     3     -1.359500   1 H  s                47     -1.359500   3 H  s         
   267      1.359500  13 H  s               311      1.359500  15 H  s         
    25      0.590181   2 C  px               69      0.590181   4 C  px        

 Vector   32  Occ=0.000000D+00  E= 1.735317D-01  Symmetry=a1
              MO Center= -6.1D-16, -1.4D-15, -1.6D+00, r^2= 7.8D+00
   Bfn.  Coefficient  Atom+Function         Bfn.  Coefficient  Atom+Function  
  ----- ------------  ---------------      ----- ------------  ---------------
   106      1.661416   6 C  s               150      1.661416   8 C  s         
    91     -1.508668   5 H  s               135     -1.508668   7 H  s         
   194     -0.972485  10 C  s               238     -0.972485  12 C  s         
   115     -0.734303   6 C  pz              159     -0.734303   8 C  pz        
    27      0.456188   2 C  pz               71      0.456188   4 C  pz        

 Vector   33  Occ=0.000000D+00  E= 1.904379D-01  Symmetry=b2
              MO Center= -8.9D-16, -1.9D-15,  1.6D+00, r^2= 1.1D+01
   Bfn.  Coefficient  Atom+Function         Bfn.  Coefficient  Atom+Function  
  ----- ------------  ---------------      ----- ------------  ---------------
   179      2.314195   9 H  s               223     -2.314195  11 H  s         
   203     -1.816969  10 C  pz              247      1.816969  12 C  pz        
   202      1.528169  10 C  py              246      1.528169  12 C  py        
    18     -1.444117   2 C  s                62      1.444117   4 C  s         
   282     -1.444117  14 C  s               326      1.444117  16 C  s         

[...]
   19 Stretch                 15    16                       1.08683    0.00000
   20 Bend                     1     2     4               115.47264    0.00035
   21 Bend                     1     2     6               122.36108    0.00018
   22 Bend                     1     2    10               124.97488   -0.00021
   23 Bend                     2     4     3               115.47264    0.00035
   24 Bend                     2     4     8               109.97192    0.00021
   25 Bend                     2     4    12                88.77120   -0.00037
   26 Bend                     2     6     5               131.85052    0.00015
   27 Bend                     2     6    14                90.96646    0.00017
   28 Bend                     2    10     9               124.08341    0.00296
   29 Bend                     2    10    12                91.22880    0.00037
   30 Bend                     2    10    14                85.64429    0.00095
   31 Bend                     3     4     8               122.36108    0.00018
   32 Bend                     3     4    12               124.97488   -0.00021
   33 Bend                     4     2     6               109.97192    0.00021
   34 Bend                     4     2    10                88.77120   -0.00037
   35 Bend                     4     8     7               131.85052    0.00015
   36 Bend                     4     8    16                90.96646    0.00017
   37 Bend                     4    12    10                91.22880    0.00037
   38 Bend                     4    12    11               124.08341    0.00296
   39 Bend                     4    12    16                85.64429    0.00095
   40 Bend                     5     6    14               131.85052    0.00015
   41 Bend                     6     2    10                88.37002   -0.00050
   42 Bend                     6    14    10                88.37002   -0.00050
   43 Bend                     6    14    13               122.36108    0.00018
   44 Bend                     6    14    16               109.97192    0.00021
   45 Bend                     7     8    16               131.85052    0.00015
   46 Bend                     8     4    12                88.37002   -0.00050
   47 Bend                     8    16    12                88.37002   -0.00050
   48 Bend                     8    16    14               109.97192    0.00021
   49 Bend                     8    16    15               122.36108    0.00018
   50 Bend                     9    10    12               128.50278   -0.00621
   51 Bend                     9    10    14               124.08341    0.00296
   52 Bend                    10    12    11               128.50278   -0.00621
   53 Bend                    10    12    16                91.22880    0.00037
   54 Bend                    10    14    13               124.97488   -0.00021
   55 Bend                    10    14    16                88.77120   -0.00037
   56 Bend                    11    12    16               124.08341    0.00296
   57 Bend                    12    10    14                91.22880    0.00037
   58 Bend                    12    16    14                88.77120   -0.00037
   59 Bend                    12    16    15               124.97488   -0.00021
   60 Bend                    13    14    16               115.47264    0.00035
   61 Bend                    14    16    15               115.47264    0.00035
   62 Torsion                  1     2     4     3           0.00000    0.00000
   63 Torsion                  1     2     4     8         143.50919    0.00101
   64 Torsion                  1     2     4    12        -128.67241    0.00034
   65 Torsion                  1     2     6     5         -53.21089    0.00020
   66 Torsion                  1     2     6    14         151.15514   -0.00084
   67 Torsion                  1     2    10     9         -19.36526    0.00633
   68 Torsion                  1     2    10    12         120.66283    0.00007
   69 Torsion                  1     2    10    14        -148.19815    0.00043
   70 Torsion                  2     4     8     7         -87.32478   -0.00137
   71 Torsion                  2     4     8    16          68.30919   -0.00033
   72 Torsion                  2     4    12    10           0.00000    0.00000
   73 Torsion                  2     4    12    11         140.02809   -0.00626
   74 Torsion                  2     4    12    16         -91.13901   -0.00036
   75 Torsion                  2     6    14    10         -19.79009    0.00026
   76 Torsion                  2     6    14    13        -151.15514    0.00084
   77 Torsion                  2     6    14    16          68.30919   -0.00033
   78 Torsion                  2    10    12     4           0.00000    0.00000
   79 Torsion                  2    10    12    11        -137.16564    0.00048
   80 Torsion                  2    10    12    16          85.66872    0.00097
   81 Torsion                  2    10    14     6          18.88335   -0.00012
   82 Torsion                  2    10    14    13         148.19815   -0.00043
   83 Torsion                  2    10    14    16         -91.13901   -0.00036
   84 Torsion                  3     4     2     6        -143.50919   -0.00101
   85 Torsion                  3     4     2    10         128.67241   -0.00034
   86 Torsion                  3     4     8     7          53.21089   -0.00020
   87 Torsion                  3     4     8    16        -151.15514    0.00084
   88 Torsion                  3     4    12    10        -120.66283   -0.00007
   89 Torsion                  3     4    12    11          19.36526   -0.00633
   90 Torsion                  3     4    12    16         148.19815   -0.00043
   91 Torsion                  4     2     6     5          87.32478    0.00137
   92 Torsion                  4     2     6    14         -68.30919    0.00033
   93 Torsion                  4     2    10     9        -140.02809    0.00626
   94 Torsion                  4     2    10    12           0.00000    0.00000
   95 Torsion                  4     2    10    14          91.13901    0.00036
   96 Torsion                  4     8    16    12          19.79009   -0.00026
   97 Torsion                  4     8    16    14         -68.30919    0.00033
   98 Torsion                  4     8    16    15         151.15514   -0.00084
   99 Torsion                  4    12    10     9         137.16564   -0.00048
  100 Torsion                  4    12    10    14         -85.66872   -0.00097
  101 Torsion                  4    12    16     8         -18.88335    0.00012
  102 Torsion                  4    12    16    14          91.13901    0.00036
  103 Torsion                  4    12    16    15        -148.19815    0.00043
  104 Torsion                  5     6     2    10         175.42405    0.00078
  105 Torsion                  5     6    14    10        -175.42405   -0.00078
  106 Torsion                  5     6    14    13          53.21089   -0.00020
  107 Torsion                  5     6    14    16         -87.32478   -0.00137
  108 Torsion                  6     2     4     8           0.00000    0.00000
  109 Torsion                  6     2     4    12          87.81840   -0.00067
  110 Torsion                  6     2    10     9         109.94955    0.00602
  111 Torsion                  6     2    10    12        -110.02236   -0.00024
  112 Torsion                  6     2    10    14         -18.88335    0.00012
  113 Torsion                  6    14    10     9        -109.94955   -0.00602
  114 Torsion                  6    14    10    12         110.02236    0.00024
  115 Torsion                  6    14    16     8           0.00000    0.00000
  116 Torsion                  6    14    16    12         -87.81840    0.00067
  117 Torsion                  6    14    16    15         143.50919    0.00101
  118 Torsion                  7     8     4    12        -175.42405   -0.00078
  119 Torsion                  7     8    16    12         175.42405    0.00078
  120 Torsion                  7     8    16    14          87.32478    0.00137
  121 Torsion                  7     8    16    15         -53.21089    0.00020
  122 Torsion                  8     4     2    10         -87.81840    0.00067
  123 Torsion                  8     4    12    10         110.02236    0.00024
  124 Torsion                  8     4    12    11        -109.94955   -0.00602
  125 Torsion                  8     4    12    16          18.88335   -0.00012
  126 Torsion                  8    16    12    10        -110.02236   -0.00024
  127 Torsion                  8    16    12    11         109.94955    0.00602
  128 Torsion                  8    16    14    10          87.81840   -0.00067
  129 Torsion                  8    16    14    13        -143.50919   -0.00101
  130 Torsion                  9    10    12    11           0.00000    0.00000
  131 Torsion                  9    10    12    16        -137.16564    0.00048
  132 Torsion                  9    10    14    13          19.36526   -0.00633
  133 Torsion                  9    10    14    16         140.02809   -0.00626
  134 Torsion                 10     2     4    12           0.00000    0.00000
  135 Torsion                 10     2     6    14          19.79009   -0.00026
  136 Torsion                 10    12    16    14           0.00000    0.00000
  137 Torsion                 10    12    16    15         120.66283    0.00007
  138 Torsion                 10    14    16    12           0.00000    0.00000
  139 Torsion                 10    14    16    15        -128.67241    0.00034
  140 Torsion                 11    12    10    14         137.16564   -0.00048
  141 Torsion                 11    12    16    14        -140.02809    0.00626
  142 Torsion                 11    12    16    15         -19.36526    0.00633
  143 Torsion                 12     4     8    16         -19.79009    0.00026
  144 Torsion                 12    10    14    13        -120.66283   -0.00007
  145 Torsion                 12    10    14    16          -0.00000    0.00000
  146 Torsion                 12    16    14    13         128.67241   -0.00034
  147 Torsion                 13    14    16    15           0.00000    0.00000
  148 Torsion                 14    10    12    16           0.00000    0.00000

 ==============================================================================
                                internuclear distances
 ------------------------------------------------------------------------------
       center one      |      center two      | atomic units |  angstroms
 ------------------------------------------------------------------------------
    2 C                |   1 H                |     2.05381  |     1.08683
    4 C                |   2 C                |     3.04353  |     1.61057
    4 C                |   3 H                |     2.05381  |     1.08683
    6 C                |   2 C                |     2.82861  |     1.49684
    6 C                |   5 H                |     2.04472  |     1.08202
    8 C                |   4 C                |     2.82861  |     1.49684
    8 C                |   7 H                |     2.04472  |     1.08202
   10 C                |   2 C                |     2.96727  |     1.57021
   10 C                |   9 H                |     2.05064  |     1.08515
   12 C                |   4 C                |     2.96727  |     1.57021
   12 C                |  10 C                |     2.91627  |     1.54322
   12 C                |  11 H                |     2.05064  |     1.08515
   14 C                |   6 C                |     2.82861  |     1.49684
   14 C                |  10 C                |     2.96727  |     1.57021
   14 C                |  13 H                |     2.05381  |     1.08683
   16 C                |   8 C                |     2.82861  |     1.49684
   16 C                |  12 C                |     2.96727  |     1.57021
   16 C                |  14 C                |     3.04353  |     1.61057
   16 C                |  15 H                |     2.05381  |     1.08683
 ------------------------------------------------------------------------------
                         number of included internuclear distances:         19
 ==============================================================================



 ==============================================================================
                                 internuclear angles
 ------------------------------------------------------------------------------
        center 1       |       center 2       |       center 3       |  degrees
 ------------------------------------------------------------------------------
    1 H                |   2 C                |   4 C                |   115.47
    1 H                |   2 C                |   6 C                |   122.36
    1 H                |   2 C                |  10 C                |   124.97
    4 C                |   2 C                |   6 C                |   109.97
    4 C                |   2 C                |  10 C                |    88.77
    6 C                |   2 C                |  10 C                |    88.37
    2 C                |   4 C                |   3 H                |   115.47
    2 C                |   4 C                |   8 C                |   109.97
    2 C                |   4 C                |  12 C                |    88.77
    3 H                |   4 C                |   8 C                |   122.36
    3 H                |   4 C                |  12 C                |   124.97
    8 C                |   4 C                |  12 C                |    88.37
    2 C                |   6 C                |   5 H                |   131.85
    2 C                |   6 C                |  14 C                |    90.97
    5 H                |   6 C                |  14 C                |   131.85
    4 C                |   8 C                |   7 H                |   131.85
    4 C                |   8 C                |  16 C                |    90.97
    7 H                |   8 C                |  16 C                |   131.85
    2 C                |  10 C                |   9 H                |   124.08
    2 C                |  10 C                |  12 C                |    91.23
    2 C                |  10 C                |  14 C                |    85.64
    9 H                |  10 C                |  12 C                |   128.50
    9 H                |  10 C                |  14 C                |   124.08
   12 C                |  10 C                |  14 C                |    91.23
    4 C                |  12 C                |  10 C                |    91.23
    4 C                |  12 C                |  11 H                |   124.08
    4 C                |  12 C                |  16 C                |    85.64
   10 C                |  12 C                |  11 H                |   128.50
   10 C                |  12 C                |  16 C                |    91.23
   11 H                |  12 C                |  16 C                |   124.08
    6 C                |  14 C                |  10 C                |    88.37
    6 C                |  14 C                |  13 H                |   122.36
    6 C                |  14 C                |  16 C                |   109.97
   10 C                |  14 C                |  13 H                |   124.97
   10 C                |  14 C                |  16 C                |    88.77
   13 H                |  14 C                |  16 C                |   115.47
    8 C                |  16 C                |  12 C                |    88.37
    8 C                |  16 C                |  14 C                |   109.97
    8 C                |  16 C                |  15 H                |   122.36
   12 C                |  16 C                |  14 C                |    88.77
   12 C                |  16 C                |  15 H                |   124.97
   14 C                |  16 C                |  15 H                |   115.47
 ------------------------------------------------------------------------------
                            number of included internuclear angles:         42
 ==============================================================================




 Task  times  cpu:     5730.1s     wall:     4252.6s
 Summary of allocated global arrays
-----------------------------------
  No active global arrays



                         GA Statistics for process    0
                         ------------------------------

       create   destroy   get      put      acc     scatter   gather  read&inc
calls: 3513     3513     2.69e+07 2.15e+06 1.35e+07  500        0     1.15e+05 
number of processes/call 1.00e+00 1.00e+00 1.00e+00 0.00e+00 0.00e+00
bytes total:             9.66e+09 4.89e+10 2.69e+09 7.49e+04 0.00e+00 9.19e+05
bytes remote:            0.00e+00 0.00e+00 0.00e+00 0.00e+00 0.00e+00 0.00e+00
Max memory consumed for GA by this process: 209705064 bytes
MA_summarize_allocated_blocks: starting scan ...
MA_summarize_allocated_blocks: scan completed: 0 heap blocks, 0 stack blocks
MA usage statistics:

	allocation statistics:
					      heap	     stack
					      ----	     -----
	current number of blocks	         0	         0
	maximum number of blocks	        25	        48
	current total bytes		         0	         0
	maximum total bytes		    186992	  42969896
	maximum total K-bytes		       187	     42970
	maximum total M-bytes		         1	        43


                                NWChem Input Module
                                -------------------





                                     CITATION
                                     --------
                Please cite the following reference when publishing
                           results obtained with NWChem:

                 M. Valiev, E.J. Bylaska, N. Govind, K. Kowalski,
              T.P. Straatsma, H.J.J. van Dam, D. Wang, J. Nieplocha,
                        E. Apra, T.L. Windus, W.A. de Jong
                 "NWChem: a comprehensive and scalable open-source
                  solution for large scale molecular simulations"
                      Comput. Phys. Commun. 181, 1477 (2010)
                           doi:10.1016/j.cpc.2010.04.018

                                      AUTHORS
                                      -------
          E. Apra, E. J. Bylaska, W. A. de Jong, N. Govind, K. Kowalski,
       T. P. Straatsma, M. Valiev, H. J. J. van Dam, D. Wang, T. L. Windus,
        J. Hammond, J. Autschbach, K. Bhaskaran-Nair, J. Brabec, K. Lopata,
    S. A. Fischer, S. Krishnamoorthy, M. Jacquelin, W. Ma, M. Klemm, O. Villa,
      Y. Chen, V. Anisimov, F. Aquino, S. Hirata, M. T. Hackler, V. Konjkov,
            D. Mejia-Rodriguez, T. Risthaus, M. Malagoli, A. Marenich,
   A. Otero-de-la-Roza, J. Mullin, P. Nichols, R. Peverati, J. Pittner, Y. Zhao,
        P.-D. Fan, A. Fonari, M. J. Williamson, R. J. Harrison, J. R. Rehr,
      M. Dupuis, D. Silverstein, D. M. A. Smith, J. Nieplocha, V. Tipparaju,
    M. Krishnan, B. E. Van Kuiken, A. Vazquez-Mayagoitia, L. Jensen, M. Swart,
      Q. Wu, T. Van Voorhis, A. A. Auer, M. Nooijen, L. D. Crosby, E. Brown,
      G. Cisneros, G. I. Fann, H. Fruchtl, J. Garza, K. Hirao, R. A. Kendall,
      J. A. Nichols, K. Tsemekhman, K. Wolinski, J. Anchell, D. E. Bernholdt,
      P. Borowski, T. Clark, D. Clerc, H. Dachsel, M. J. O. Deegan, K. Dyall,
    D. Elwood, E. Glendening, M. Gutowski, A. C. Hess, J. Jaffe, B. G. Johnson,
     J. Ju, R. Kobayashi, R. Kutteh, Z. Lin, R. Littlefield, X. Long, B. Meng,
      T. Nakajima, S. Niu, L. Pollack, M. Rosing, K. Glaesemann, G. Sandrone,
      M. Stave, H. Taylor, G. Thomas, J. H. van Lenthe, A. T. Wong, Z. Zhang.

 Total times  cpu:     5730.3s     wall:     4252.7s
