 argument  1 = triplet.nw
                                         
                                         


              Northwest Computational Chemistry Package (NWChem) 6.6
              ------------------------------------------------------


                    Environmental Molecular Sciences Laboratory
                       Pacific Northwest National Laboratory
                                Richland, WA 99352

                              Copyright (c) 1994-2015
                       Pacific Northwest National Laboratory
                            Battelle Memorial Institute

             NWChem is an open-source computational chemistry package
                        distributed under the terms of the
                      Educational Community License (ECL) 2.0
             A copy of the license is included with this distribution
                              in the LICENSE.TXT file

                                  ACKNOWLEDGMENT
                                  --------------

            This software and its documentation were developed at the
            EMSL at Pacific Northwest National Laboratory, a multiprogram
            national laboratory, operated for the U.S. Department of Energy
            by Battelle under Contract Number DE-AC05-76RL01830. Support
            for this work was provided by the Department of Energy Office
            of Biological and Environmental Research, Office of Basic
            Energy Sciences, and the Office of Advanced Scientific Computing.


           Job information
           ---------------

    hostname        = konkov-work
    program         = nwchem
    date            = Wed Mar 22 15:03:04 2017

    compiled        = Пн_фев_06_13:51:48_2017
    source          = /home/vladimir/bin/nwchem_source/nwchem-6.6+r27746
    nwchem branch   = 6.6
    nwchem revision = 27746
    ga revision     = 10594
    input           = triplet.nw
    prefix          = triplet.
    data base       = ./triplet.db
    status          = startup
    nproc           =        1
    time left       =     -1s



           Memory information
           ------------------

    heap     =   13107196 doubles =    100.0 Mbytes
    stack    =   13107201 doubles =    100.0 Mbytes
    global   =   26214400 doubles =    200.0 Mbytes (distinct from heap & stack)
    total    =   52428797 doubles =    400.0 Mbytes
    verify   = yes
    hardfail = no 


           Directory information
           ---------------------

  0 permanent = .
  0 scratch   = .




                                NWChem Input Module
                                -------------------


               cubane T-biradical MP2/cc-pVTZ geometry optimization
               ----------------------------------------------------

 Scaling coordinates for geometry "geometry" by  1.889725989
 (inverse scale =  0.529177249)

 Turning off AUTOSYM since
 SYMMETRY directive was detected!


          ------
          auto-z
          ------


                             Geometry "geometry" -> ""
                             -------------------------

 Output coordinates in angstroms (scale by  1.889725989 to convert to a.u.)

  No.       Tag          Charge          X              Y              Z
 ---- ---------------- ---------- -------------- -------------- --------------
    1 H                    1.0000     2.06558205    -1.28286326     0.01750519
    2 C                    6.0000     1.07464059    -0.80757103    -0.05540536
    3 H                    1.0000     2.06558205     1.28286326     0.01750519
    4 C                    6.0000     1.07464059     0.80757103    -0.05540536
    5 H                    1.0000     0.00000000    -1.50306671    -2.06416749
    6 C                    6.0000     0.00000000    -1.33057164    -0.98025669
    7 H                    1.0000     0.00000000     1.50306671    -2.06416749
    8 C                    6.0000     0.00000000     1.33057164    -0.98025669
    9 H                    1.0000     0.00000000    -1.45938535     1.96438526
   10 C                    6.0000     0.00000000    -0.77726259     1.10186270
   11 H                    1.0000     0.00000000     1.45938535     1.96438526
   12 C                    6.0000     0.00000000     0.77726259     1.10186270
   13 H                    1.0000    -2.06558205    -1.28286326     0.01750519
   14 C                    6.0000    -1.07464059    -0.80757103    -0.05540536
   15 H                    1.0000    -2.06558205     1.28286326     0.01750519
   16 C                    6.0000    -1.07464059     0.80757103    -0.05540536

      Atomic Mass 
      ----------- 

      H                  1.007825
      C                 12.000000


 Effective nuclear repulsion energy (a.u.)     357.2184600884

            Nuclear Dipole moment (a.u.) 
            ----------------------------
        X                 Y               Z
 ---------------- ---------------- ----------------
    -0.0000000000     0.0000000000    -0.0000000000

      Symmetry information
      --------------------

 Group name             C2v       
 Group number             16
 Group order               4
 No. of unique centers     6

      Symmetry unique atoms

     1    2    5    6    9   10



                                Z-matrix (autoz)
                                -------- 

 Units are Angstrom for bonds and degrees for angles

      Type          Name      I     J     K     L     M      Value
      ----------- --------  ----- ----- ----- ----- ----- ----------
    1 Stretch                  1     2                       1.10145
    2 Stretch                  2     4                       1.61514
    3 Stretch                  2     6                       1.51120
    4 Stretch                  2    10                       1.57957
    5 Stretch                  3     4                       1.10145
    6 Stretch                  4     8                       1.51120
    7 Stretch                  4    12                       1.57957
    8 Stretch                  5     6                       1.09755
    9 Stretch                  6    14                       1.51120
   10 Stretch                  7     8                       1.09755
   11 Stretch                  8    16                       1.51120
   12 Stretch                  9    10                       1.09965
   13 Stretch                 10    12                       1.55453
   14 Stretch                 10    14                       1.57957
   15 Stretch                 11    12                       1.09965
   16 Stretch                 12    16                       1.57957
   17 Stretch                 13    14                       1.10145
   18 Stretch                 14    16                       1.61514
   19 Stretch                 15    16                       1.10145
   20 Bend                     1     2     4               115.56384
   21 Bend                     1     2     6               122.06921
   22 Bend                     1     2    10               124.88027
   23 Bend                     2     4     3               115.56384
   24 Bend                     2     4     8               110.24789
   25 Bend                     2     4    12                88.90055
   26 Bend                     2     6     5               131.20713
   27 Bend                     2     6    14                90.65164
   28 Bend                     2    10     9               124.24664
   29 Bend                     2    10    12                91.09945
   30 Bend                     2    10    14                85.74005
   31 Bend                     3     4     8               122.06921
   32 Bend                     3     4    12               124.88027
   33 Bend                     4     2     6               110.24789
   34 Bend                     4     2    10                88.90055
   35 Bend                     4     8     7               131.20713
   36 Bend                     4     8    16                90.65164
   37 Bend                     4    12    10                91.09945
   38 Bend                     4    12    11               124.24664
   39 Bend                     4    12    16                85.74005
   40 Bend                     5     6    14               131.20713
   41 Bend                     6     2    10                88.35078
   42 Bend                     6    14    10                88.35078
   43 Bend                     6    14    13               122.06921
   44 Bend                     6    14    16               110.24789
   45 Bend                     7     8    16               131.20713
   46 Bend                     8     4    12                88.35078
   47 Bend                     8    16    12                88.35078
   48 Bend                     8    16    14               110.24789
   49 Bend                     8    16    15               122.06921
   50 Bend                     9    10    12               128.33858
   51 Bend                     9    10    14               124.24664
   52 Bend                    10    12    11               128.33858
   53 Bend                    10    12    16                91.09945
   54 Bend                    10    14    13               124.88027
   55 Bend                    10    14    16                88.90055
   56 Bend                    11    12    16               124.24664
   57 Bend                    12    10    14                91.09945
   58 Bend                    12    16    14                88.90055
   59 Bend                    12    16    15               124.88027
   60 Bend                    13    14    16               115.56384
   61 Bend                    14    16    15               115.56384
   62 Torsion                  1     2     4     3           0.00000
   63 Torsion                  1     2     4     8         143.49231
   64 Torsion                  1     2     4    12        -128.67175
   65 Torsion                  1     2     6     5         -56.46283
   66 Torsion                  1     2     6    14         151.20311
   67 Torsion                  1     2    10     9         -18.93778
   68 Torsion                  1     2    10    12         120.84615
   69 Torsion                  1     2    10    14        -148.13308
   70 Torsion                  2     4     8     7         -84.24080
   71 Torsion                  2     4     8    16          68.09326
   72 Torsion                  2     4    12    10          -0.00000
   73 Torsion                  2     4    12    11         139.78393
   74 Torsion                  2     4    12    16         -91.02078
   75 Torsion                  2     6    14    10         -20.12565
   76 Torsion                  2     6    14    13        -151.20311
   77 Torsion                  2     6    14    16          68.09326
   78 Torsion                  2    10    12     4           0.00000
   79 Torsion                  2    10    12    11        -137.12018
   80 Torsion                  2    10    12    16          85.75964
   81 Torsion                  2    10    14     6          19.27352
   82 Torsion                  2    10    14    13         148.13308
   83 Torsion                  2    10    14    16         -91.02078
   84 Torsion                  3     4     2     6        -143.49231
   85 Torsion                  3     4     2    10         128.67175
   86 Torsion                  3     4     8     7          56.46283
   87 Torsion                  3     4     8    16        -151.20311
   88 Torsion                  3     4    12    10        -120.84615
   89 Torsion                  3     4    12    11          18.93778
   90 Torsion                  3     4    12    16         148.13308
   91 Torsion                  4     2     6     5          84.24080
   92 Torsion                  4     2     6    14         -68.09326
   93 Torsion                  4     2    10     9        -139.78393
   94 Torsion                  4     2    10    12           0.00000
   95 Torsion                  4     2    10    14          91.02078
   96 Torsion                  4     8    16    12          20.12565
   97 Torsion                  4     8    16    14         -68.09326
   98 Torsion                  4     8    16    15         151.20311
   99 Torsion                  4    12    10     9         137.12018
  100 Torsion                  4    12    10    14         -85.75964
  101 Torsion                  4    12    16     8         -19.27352
  102 Torsion                  4    12    16    14          91.02078
  103 Torsion                  4    12    16    15        -148.13308
  104 Torsion                  5     6     2    10         172.45971
  105 Torsion                  5     6    14    10        -172.45971
  106 Torsion                  5     6    14    13          56.46283
  107 Torsion                  5     6    14    16         -84.24080
  108 Torsion                  6     2     4     8          -0.00000
  109 Torsion                  6     2     4    12          87.83594
  110 Torsion                  6     2    10     9         109.92177
  111 Torsion                  6     2    10    12        -110.29429
  112 Torsion                  6     2    10    14         -19.27352
  113 Torsion                  6    14    10     9        -109.92177
  114 Torsion                  6    14    10    12         110.29429
  115 Torsion                  6    14    16     8           0.00000
  116 Torsion                  6    14    16    12         -87.83594
  117 Torsion                  6    14    16    15         143.49231
  118 Torsion                  7     8     4    12        -172.45971
  119 Torsion                  7     8    16    12         172.45971
  120 Torsion                  7     8    16    14          84.24080
  121 Torsion                  7     8    16    15         -56.46283
  122 Torsion                  8     4     2    10         -87.83594
  123 Torsion                  8     4    12    10         110.29429
  124 Torsion                  8     4    12    11        -109.92177
  125 Torsion                  8     4    12    16          19.27352
  126 Torsion                  8    16    12    10        -110.29429
  127 Torsion                  8    16    12    11         109.92177
  128 Torsion                  8    16    14    10          87.83594
  129 Torsion                  8    16    14    13        -143.49231
  130 Torsion                  9    10    12    11           0.00000
  131 Torsion                  9    10    12    16        -137.12018
  132 Torsion                  9    10    14    13          18.93778
  133 Torsion                  9    10    14    16         139.78393
  134 Torsion                 10     2     4    12           0.00000
  135 Torsion                 10     2     6    14          20.12565
  136 Torsion                 10    12    16    14          -0.00000
  137 Torsion                 10    12    16    15         120.84615
  138 Torsion                 10    14    16    12          -0.00000
  139 Torsion                 10    14    16    15        -128.67175
  140 Torsion                 11    12    10    14         137.12018
  141 Torsion                 11    12    16    14        -139.78393
  142 Torsion                 11    12    16    15         -18.93778
  143 Torsion                 12     4     8    16         -20.12565
  144 Torsion                 12    10    14    13        -120.84615
  145 Torsion                 12    10    14    16           0.00000
  146 Torsion                 12    16    14    13         128.67175
  147 Torsion                 13    14    16    15          -0.00000
  148 Torsion                 14    10    12    16          -0.00000


            XYZ format geometry
            -------------------
    16
 geometry
 H                     2.06558205    -1.28286326     0.01750519
 C                     1.07464059    -0.80757103    -0.05540536
 H                     2.06558205     1.28286326     0.01750519
 C                     1.07464059     0.80757103    -0.05540536
 H                     0.00000000    -1.50306671    -2.06416749
 C                     0.00000000    -1.33057164    -0.98025669
 H                     0.00000000     1.50306671    -2.06416749
 C                     0.00000000     1.33057164    -0.98025669
 H                     0.00000000    -1.45938535     1.96438526
 C                     0.00000000    -0.77726259     1.10186270
 H                     0.00000000     1.45938535     1.96438526
 C                     0.00000000     0.77726259     1.10186270
 H                    -2.06558205    -1.28286326     0.01750519
 C                    -1.07464059    -0.80757103    -0.05540536
 H                    -2.06558205     1.28286326     0.01750519
 C                    -1.07464059     0.80757103    -0.05540536

 ==============================================================================
                                internuclear distances
 ------------------------------------------------------------------------------
       center one      |      center two      | atomic units |  angstroms
 ------------------------------------------------------------------------------
    2 C                |   1 H                |     2.08143  |     1.10145
    4 C                |   2 C                |     3.05218  |     1.61514
    4 C                |   3 H                |     2.08143  |     1.10145
    6 C                |   2 C                |     2.85576  |     1.51120
    6 C                |   5 H                |     2.07407  |     1.09755
    8 C                |   4 C                |     2.85576  |     1.51120
    8 C                |   7 H                |     2.07407  |     1.09755
   10 C                |   2 C                |     2.98495  |     1.57957
   10 C                |   9 H                |     2.07804  |     1.09965
   12 C                |   4 C                |     2.98495  |     1.57957
   12 C                |  10 C                |     2.93763  |     1.55453
   12 C                |  11 H                |     2.07804  |     1.09965
   14 C                |   6 C                |     2.85576  |     1.51120
   14 C                |  10 C                |     2.98495  |     1.57957
   14 C                |  13 H                |     2.08143  |     1.10145
   16 C                |   8 C                |     2.85576  |     1.51120
   16 C                |  12 C                |     2.98495  |     1.57957
   16 C                |  14 C                |     3.05218  |     1.61514
   16 C                |  15 H                |     2.08143  |     1.10145
 ------------------------------------------------------------------------------
                         number of included internuclear distances:         19
 ==============================================================================



 ==============================================================================
                                 internuclear angles
 ------------------------------------------------------------------------------
        center 1       |       center 2       |       center 3       |  degrees
 ------------------------------------------------------------------------------
    1 H                |   2 C                |   4 C                |   115.56
    1 H                |   2 C                |   6 C                |   122.07
    1 H                |   2 C                |  10 C                |   124.88
    4 C                |   2 C                |   6 C                |   110.25
    4 C                |   2 C                |  10 C                |    88.90
    6 C                |   2 C                |  10 C                |    88.35
    2 C                |   4 C                |   3 H                |   115.56
    2 C                |   4 C                |   8 C                |   110.25
    2 C                |   4 C                |  12 C                |    88.90
    3 H                |   4 C                |   8 C                |   122.07
    3 H                |   4 C                |  12 C                |   124.88
    8 C                |   4 C                |  12 C                |    88.35
    2 C                |   6 C                |   5 H                |   131.21
    2 C                |   6 C                |  14 C                |    90.65
    5 H                |   6 C                |  14 C                |   131.21
    4 C                |   8 C                |   7 H                |   131.21
    4 C                |   8 C                |  16 C                |    90.65
    7 H                |   8 C                |  16 C                |   131.21
    2 C                |  10 C                |   9 H                |   124.25
    2 C                |  10 C                |  12 C                |    91.10
    2 C                |  10 C                |  14 C                |    85.74
    9 H                |  10 C                |  12 C                |   128.34
    9 H                |  10 C                |  14 C                |   124.25
   12 C                |  10 C                |  14 C                |    91.10
    4 C                |  12 C                |  10 C                |    91.10
    4 C                |  12 C                |  11 H                |   124.25
    4 C                |  12 C                |  16 C                |    85.74
   10 C                |  12 C                |  11 H                |   128.34
   10 C                |  12 C                |  16 C                |    91.10
   11 H                |  12 C                |  16 C                |   124.25
    6 C                |  14 C                |  10 C                |    88.35
    6 C                |  14 C                |  13 H                |   122.07
    6 C                |  14 C                |  16 C                |   110.25
   10 C                |  14 C                |  13 H                |   124.88
   10 C                |  14 C                |  16 C                |    88.90
   13 H                |  14 C                |  16 C                |   115.56
    8 C                |  16 C                |  12 C                |    88.35
    8 C                |  16 C                |  14 C                |   110.25
    8 C                |  16 C                |  15 H                |   122.07
   12 C                |  16 C                |  14 C                |    88.90
   12 C                |  16 C                |  15 H                |   124.88
   14 C                |  16 C                |  15 H                |   115.56
 ------------------------------------------------------------------------------
                            number of included internuclear angles:         42
 ==============================================================================



  library name resolved from: environment
  library file name is: </home/vladimir/bin/nwchem-6.6/src/basis/libraries/>
  
                      Basis "ao basis" -> "" (spherical)
                      -----
  H (Hydrogen)
  ------------
            Exponent  Coefficients 
       -------------- ---------------------------------------------------------
  1 S  3.38700000E+01  0.006068
  1 S  5.09500000E+00  0.045308
  1 S  1.15900000E+00  0.202822

  2 S  3.25800000E-01  1.000000

  3 S  1.02700000E-01  1.000000

  4 P  1.40700000E+00  1.000000

  5 P  3.88000000E-01  1.000000

  6 D  1.05700000E+00  1.000000

  C (Carbon)
  ----------
            Exponent  Coefficients 
       -------------- ---------------------------------------------------------
  1 S  8.23600000E+03  0.000531
  1 S  1.23500000E+03  0.004108
  1 S  2.80800000E+02  0.021087
  1 S  7.92700000E+01  0.081853
  1 S  2.55900000E+01  0.234817
  1 S  8.99700000E+00  0.434401
  1 S  3.31900000E+00  0.346129
  1 S  3.64300000E-01 -0.008983

  2 S  8.23600000E+03 -0.000113
  2 S  1.23500000E+03 -0.000878
  2 S  2.80800000E+02 -0.004540
  2 S  7.92700000E+01 -0.018133
  2 S  2.55900000E+01 -0.055760
  2 S  8.99700000E+00 -0.126895
  2 S  3.31900000E+00 -0.170352
  2 S  3.64300000E-01  0.598684

  3 S  9.05900000E-01  1.000000

  4 S  1.28500000E-01  1.000000

  5 P  1.87100000E+01  0.014031
  5 P  4.13300000E+00  0.086866
  5 P  1.20000000E+00  0.290216

  6 P  3.82700000E-01  1.000000

  7 P  1.20900000E-01  1.000000

  8 D  1.09700000E+00  1.000000

  9 D  3.18000000E-01  1.000000

 10 F  7.61000000E-01  1.000000



 Summary of "ao basis" -> "" (spherical)
 ------------------------------------------------------------------------------
       Tag                 Description            Shells   Functions and Types
 ---------------- ------------------------------  ------  ---------------------
 H                          cc-pVTZ                  6       14   3s2p1d
 C                          cc-pVTZ                 10       30   4s3p2d1f




                           NWChem Geometry Optimization
                           ----------------------------




               cubane T-biradical MP2/cc-pVTZ geometry optimization


 maximum gradient threshold         (gmax) =   0.000450
 rms gradient threshold             (grms) =   0.000300
 maximum cartesian step threshold   (xmax) =   0.001800
 rms cartesian step threshold       (xrms) =   0.001200
 fixed trust radius                (trust) =   0.300000
 maximum step size to saddle      (sadstp) =   0.100000
 energy precision                  (eprec) =   1.0D-07
 maximum number of steps          (nptopt) =   20
 initial hessian option           (inhess) =    0
 line search option               (linopt) =    1
 hessian update option            (modupd) =    1
 saddle point option              (modsad) =    0
 initial eigen-mode to follow     (moddir) =    0
 initial variable to follow       (vardir) =    0
 follow first negative mode     (firstneg) =    T
 apply conjugacy                    (opcg) =    F
 source of zmatrix                         =   autoz   


          -------------------
          Energy Minimization
          -------------------


 Names of Z-matrix variables 
    1              2              3              4              5         
    6              7              8              9             10         
   11             12             13             14             15         
   16             17             18             19             20         
   21             22             23             24             25         
   26             27             28             29             30         
   31             32             33             34             35         
   36             37             38             39             40         
   41             42             43             44             45         
   46             47             48             49             50         
   51             52             53             54             55         
   56             57             58             59             60         
   61             62             63             64             65         
   66             67             68             69             70         
   71             72             73             74             75         
   76             77             78             79             80         
   81             82             83             84             85         
   86             87             88             89             90         
   91             92             93             94             95         
   96             97             98             99            100         
  101            102            103            104            105         
  106            107            108            109            110         
  111            112            113            114            115         
  116            117            118            119            120         
  121            122            123            124            125         
  126            127            128            129            130         
  131            132            133            134            135         
  136            137            138            139            140         
  141            142            143            144            145         
  146            147            148         

 Variables with the same non-blank name are constrained to be equal


 Using diagonal initial Hessian 
 Scaling for Hessian diagonals: bonds = 1.00  angles = 0.25  torsions = 0.10

          --------
          Step   0
          --------


                         Geometry "geometry" -> "geometry"
                         ---------------------------------

 Output coordinates in angstroms (scale by  1.889725989 to convert to a.u.)

  No.       Tag          Charge          X              Y              Z
 ---- ---------------- ---------- -------------- -------------- --------------
    1 H                    1.0000     2.06558205    -1.28286326     0.01750519
    2 C                    6.0000     1.07464059    -0.80757103    -0.05540536
    3 H                    1.0000     2.06558205     1.28286326     0.01750519
    4 C                    6.0000     1.07464059     0.80757103    -0.05540536
    5 H                    1.0000     0.00000000    -1.50306671    -2.06416749
    6 C                    6.0000     0.00000000    -1.33057164    -0.98025669
    7 H                    1.0000     0.00000000     1.50306671    -2.06416749
    8 C                    6.0000     0.00000000     1.33057164    -0.98025669
    9 H                    1.0000     0.00000000    -1.45938535     1.96438526
   10 C                    6.0000     0.00000000    -0.77726259     1.10186270
   11 H                    1.0000     0.00000000     1.45938535     1.96438526
   12 C                    6.0000     0.00000000     0.77726259     1.10186270
   13 H                    1.0000    -2.06558205    -1.28286326     0.01750519
   14 C                    6.0000    -1.07464059    -0.80757103    -0.05540536
   15 H                    1.0000    -2.06558205     1.28286326     0.01750519
   16 C                    6.0000    -1.07464059     0.80757103    -0.05540536

      Atomic Mass 
      ----------- 

      H                  1.007825
      C                 12.000000


 Effective nuclear repulsion energy (a.u.)     357.2184600884

            Nuclear Dipole moment (a.u.) 
            ----------------------------
        X                 Y               Z
 ---------------- ---------------- ----------------
    -0.0000000000     0.0000000000    -0.0000000000

      Symmetry information
      --------------------

 Group name             C2v       
 Group number             16
 Group order               4
 No. of unique centers     6

      Symmetry unique atoms

     1    2    5    6    9   10

                                 NWChem SCF Module
                                 -----------------


               cubane T-biradical MP2/cc-pVTZ geometry optimization



  ao basis        = "ao basis"
  functions       =   352
  atoms           =    16
  alpha electrons =    29
  beta  electrons =    27
  charge          =   0.00
  wavefunction    = UHF 
  input vectors   = atomic
  output vectors  = ./triplet.movecs
  use symmetry    = T
  symmetry adapt  = T


 Summary of "ao basis" -> "ao basis" (spherical)
 ------------------------------------------------------------------------------
       Tag                 Description            Shells   Functions and Types
 ---------------- ------------------------------  ------  ---------------------
 H                          cc-pVTZ                  6       14   3s2p1d
 C                          cc-pVTZ                 10       30   4s3p2d1f


      Symmetry analysis of basis
      --------------------------

        a1        104
        a2         72
        b1         72
        b2        104


 Forming initial guess at       0.3s


      Superposition of Atomic Density Guess
      -------------------------------------

 Sum of atomic energies:        -305.36244765

      Non-variational initial energy
      ------------------------------

 Total energy =    -311.269654
 1-e energy   =   -1117.573946
 2-e energy   =     449.085832
 HOMO         =      -0.174917
 LUMO         =      -0.122141


   Symmetry analysis of molecular orbitals - initial alpha
   -------------------------------------------------------

  Numbering of irreducible representations: 

     1 a1          2 a2          3 b1          4 b2      

  Orbital symmetries:

     1 a1          2 b2          3 b1          4 a1          5 a2      
     6 b2          7 a1          8 b2          9 a1         10 b2      
    11 b1         12 a1         13 b2         14 a2         15 a1      
    16 a1         17 b2         18 a1         19 b2         20 b1      
    21 a1         22 b1         23 b1         24 a2         25 a1      
    26 b2         27 a2         28 b2         29 a1         30 a1      
    31 b1         32 a1         33 b2         34 a1         35 a2      
    36 b1         37 b2         38 a1         39 b2      


   Symmetry analysis of molecular orbitals - initial beta
   ------------------------------------------------------

  Numbering of irreducible representations: 

     1 a1          2 a2          3 b1          4 b2      

  Orbital symmetries:

     1 a1          2 b2          3 b1          4 a1          5 a2      
     6 b2          7 a1          8 b2          9 a1         10 b2      
    11 b1         12 a1         13 b2         14 a2         15 a1      
    16 a1         17 b2         18 a1         19 b2         20 b1      
    21 a1         22 b1         23 b1         24 a2         25 a1      
    26 b2         27 a2         28 b2         29 a1         30 a1      
    31 b1         32 a1         33 b2         34 a1         35 a2      
    36 b1         37 b2         38 a1         39 b2      


 Starting SCF solution at       3.5s



 ----------------------------------------------
         Quadratically convergent UHF

 Convergence threshold     :          1.000E-06
 Maximum no. of iterations :           30
 Integral*density screening:          1.000E-08
 ----------------------------------------------


              iter       energy          gnorm     gmax       time
             ----- ------------------- --------- --------- --------
                 1     -307.3251927593  7.16D-01  1.12D-01     27.0
                 2     -307.4443748355  2.13D-01  3.24D-02     75.3
                 3     -307.4533310397  1.46D-02  1.81D-03    162.8
                 4     -307.4534171045  1.76D-04  2.48D-05    317.8
                 5     -307.4534171226  2.19D-07  4.71D-08    553.4


       Final UHF  results 
       ------------------ 

         Total SCF energy =   -307.453417122603
      One electron energy =  -1123.514222560131
      Two electron energy =    458.842345349163
 Nuclear repulsion energy =    357.218460088365

                       Sz =      1.0000
                 Sz(Sz+1) =      2.0000
                      S^2 =      2.0242

        Time for solution =    549.8s



       Symmetry analysis of molecular orbitals - alpha
       -----------------------------------------------

  Numbering of irreducible representations: 

     1 a1          2 a2          3 b1          4 b2      

  Orbital symmetries:

     1 a1          2 b1          3 b2          4 a2          5 a1      
     6 b2          7 a1          8 b2          9 a1         10 b2      
    11 b1         12 a1         13 b2         14 a2         15 a1      
    16 a1         17 b2         18 a1         19 b2         20 b1      
    21 a1         22 b1         23 a2         24 b1         25 b2      
    26 a1         27 a2         28 b2         29 a1         30 a1      
    31 a1         32 b1         33 b2         34 a1         35 a2      
    36 b2         37 b2         38 a1         39 b1      


       Symmetry analysis of molecular orbitals - beta
       ----------------------------------------------

  Numbering of irreducible representations: 

     1 a1          2 a2          3 b1          4 b2      

  Orbital symmetries:

     1 a1          2 b1          3 b2          4 a2          5 a1      
     6 b2          7 b2          8 a1          9 a1         10 b2      
    11 b1         12 a1         13 a2         14 b2         15 a1      
    16 a1         17 b2         18 a1         19 b2         20 b1      
    21 b1         22 a1         23 a2         24 b1         25 b2      
    26 a1         27 a2         28 b2         29 a1         30 a1      
    31 b1         32 a1         33 b2         34 a1         35 a2      
    36 b2         37 b2         38 a1         39 b1      

          Final alpha eigenvalues
          -----------------------

              1      
    1  -11.2352
    2  -11.2350
    3  -11.2349
    4  -11.2345
    5  -11.2340
    6  -11.2339
    7  -11.2314
    8  -11.2309
    9   -1.2267
   10   -1.0571
   11   -0.9637
   12   -0.9500
   13   -0.8071
   14   -0.7865
   15   -0.7699
   16   -0.7034
   17   -0.6540
   18   -0.6331
   19   -0.6114
   20   -0.5745
   21   -0.5484
   22   -0.5270
   23   -0.4511
   24   -0.4401
   25   -0.4138
   26   -0.4132
   27   -0.3814
   28   -0.3708
   29   -0.3046
   30    0.1458
   31    0.1582
   32    0.1628
   33    0.1801
   34    0.1906
   35    0.1989
   36    0.2053
   37    0.2266
   38    0.2310
   39    0.2402

          Final beta eigenvalues
          ----------------------

              1      
    1  -11.2357
    2  -11.2356
    3  -11.2353
    4  -11.2352
    5  -11.2302
    6  -11.2297
    7  -11.2101
    8  -11.2101
    9   -1.2091
   10   -1.0169
   11   -0.9567
   12   -0.9105
   13   -0.7839
   14   -0.7683
   15   -0.7345
   16   -0.6920
   17   -0.6402
   18   -0.6063
   19   -0.6030
   20   -0.5693
   21   -0.5181
   22   -0.4941
   23   -0.4363
   24   -0.4232
   25   -0.4052
   26   -0.4024
   27   -0.3800
   28    0.1131
   29    0.1289
   30    0.1517
   31    0.1638
   32    0.1722
   33    0.1896
   34    0.1949
   35    0.2011
   36    0.2097
   37    0.2311
   38    0.2368
   39    0.2413

                    UHF Final Alpha Molecular Orbital Analysis
                    ------------------------------------------

 Vector    9  Occ=1.000000D+00  E=-1.226687D+00  Symmetry=a1
              MO Center= -4.4D-16,  2.4D-15,  1.2D-01, r^2= 1.8D+00
   Bfn.  Coefficient  Atom+Function         Bfn.  Coefficient  Atom+Function  
  ----- ------------  ---------------      ----- ------------  ---------------
   192      0.181591  10 C  s               236      0.181591  12 C  s         
    16      0.169359   2 C  s                60      0.169359   4 C  s         
   280      0.169359  14 C  s               324      0.169359  16 C  s         

 Vector   10  Occ=1.000000D+00  E=-1.057129D+00  Symmetry=b2
              MO Center=  2.1D-15, -1.3D-15, -2.6D-01, r^2= 2.6D+00
   Bfn.  Coefficient  Atom+Function         Bfn.  Coefficient  Atom+Function  
  ----- ------------  ---------------      ----- ------------  ---------------
   104      0.243000   6 C  s               148     -0.243000   8 C  s         
    16      0.154763   2 C  s                60     -0.154763   4 C  s         
   280      0.154763  14 C  s               324     -0.154763  16 C  s         

 Vector   11  Occ=1.000000D+00  E=-9.636616D-01  Symmetry=b1
              MO Center= -6.7D-16, -3.4D-17,  1.1D-03, r^2= 2.8D+00
   Bfn.  Coefficient  Atom+Function         Bfn.  Coefficient  Atom+Function  
  ----- ------------  ---------------      ----- ------------  ---------------
    16      0.238569   2 C  s                60      0.238569   4 C  s         
   280     -0.238569  14 C  s               324     -0.238569  16 C  s         

 Vector   12  Occ=1.000000D+00  E=-9.500411D-01  Symmetry=a1
              MO Center= -2.8D-15, -1.9D-15,  1.1D-02, r^2= 3.1D+00
   Bfn.  Coefficient  Atom+Function         Bfn.  Coefficient  Atom+Function  
  ----- ------------  ---------------      ----- ------------  ---------------
   104      0.239833   6 C  s               148      0.239833   8 C  s         
   192     -0.233291  10 C  s               236     -0.233291  12 C  s         

 Vector   13  Occ=1.000000D+00  E=-8.070786D-01  Symmetry=b2
              MO Center=  6.9D-18, -1.7D-15,  1.0D-02, r^2= 4.1D+00
   Bfn.  Coefficient  Atom+Function         Bfn.  Coefficient  Atom+Function  
  ----- ------------  ---------------      ----- ------------  ---------------
   192     -0.226483  10 C  s               236      0.226483  12 C  s         
   104      0.219672   6 C  s               148     -0.219672   8 C  s         
   194     -0.171368  10 C  s               238      0.171368  12 C  s         
   106      0.158529   6 C  s               150     -0.158529   8 C  s         

 Vector   14  Occ=1.000000D+00  E=-7.864916D-01  Symmetry=a2
              MO Center=  1.9D-15,  4.4D-16, -1.0D-01, r^2= 3.9D+00
   Bfn.  Coefficient  Atom+Function         Bfn.  Coefficient  Atom+Function  
  ----- ------------  ---------------      ----- ------------  ---------------
    16      0.214258   2 C  s                60     -0.214258   4 C  s         
   280     -0.214258  14 C  s               324      0.214258  16 C  s         

 Vector   15  Occ=1.000000D+00  E=-7.698694D-01  Symmetry=a1
              MO Center=  7.9D-15,  6.1D-15, -3.3D-02, r^2= 4.2D+00
   Bfn.  Coefficient  Atom+Function         Bfn.  Coefficient  Atom+Function  
  ----- ------------  ---------------      ----- ------------  ---------------
   104      0.171135   6 C  s               148      0.171135   8 C  s         

 Vector   16  Occ=1.000000D+00  E=-7.034431D-01  Symmetry=a1
              MO Center= -9.3D-15,  5.7D-15,  2.6D-01, r^2= 4.3D+00
   Bfn.  Coefficient  Atom+Function         Bfn.  Coefficient  Atom+Function  
  ----- ------------  ---------------      ----- ------------  ---------------
    22      0.104079   2 C  px               66      0.104079   4 C  px        
   286     -0.104079  14 C  px              330     -0.104079  16 C  px        
     2      0.095209   1 H  s                46      0.095209   3 H  s         
   266      0.095209  13 H  s               310      0.095209  15 H  s         
   200      0.094711  10 C  pz              244      0.094711  12 C  pz        

 Vector   17  Occ=1.000000D+00  E=-6.540268D-01  Symmetry=b2
              MO Center= -4.0D-14,  7.5D-15,  1.6D-01, r^2= 5.1D+00
   Bfn.  Coefficient  Atom+Function         Bfn.  Coefficient  Atom+Function  
  ----- ------------  ---------------      ----- ------------  ---------------
   192      0.144333  10 C  s               236     -0.144333  12 C  s         

 Vector   18  Occ=1.000000D+00  E=-6.330528D-01  Symmetry=a1
              MO Center= -1.0D-14,  9.8D-15, -4.3D-01, r^2= 3.4D+00
   Bfn.  Coefficient  Atom+Function         Bfn.  Coefficient  Atom+Function  
  ----- ------------  ---------------      ----- ------------  ---------------
   112      0.170407   6 C  pz              156      0.170407   8 C  pz        

 Vector   19  Occ=1.000000D+00  E=-6.114234D-01  Symmetry=b2
              MO Center= -3.3D-16, -8.3D-15, -1.1D-01, r^2= 4.5D+00
   Bfn.  Coefficient  Atom+Function         Bfn.  Coefficient  Atom+Function  
  ----- ------------  ---------------      ----- ------------  ---------------
    22      0.125137   2 C  px               66     -0.125137   4 C  px        
   286     -0.125137  14 C  px              330      0.125137  16 C  px        
     2      0.119359   1 H  s                46     -0.119359   3 H  s         
   266      0.119359  13 H  s               310     -0.119359  15 H  s         

 Vector   20  Occ=1.000000D+00  E=-5.745331D-01  Symmetry=b1
              MO Center= -2.6D-15,  8.8D-15,  9.0D-02, r^2= 3.1D+00
   Bfn.  Coefficient  Atom+Function         Bfn.  Coefficient  Atom+Function  
  ----- ------------  ---------------      ----- ------------  ---------------
   198      0.145623  10 C  px              242      0.145623  12 C  px        

 Vector   21  Occ=1.000000D+00  E=-5.484455D-01  Symmetry=a1
              MO Center= -9.5D-15, -1.1D-14,  2.4D-01, r^2= 3.9D+00
   Bfn.  Coefficient  Atom+Function         Bfn.  Coefficient  Atom+Function  
  ----- ------------  ---------------      ----- ------------  ---------------
   111      0.164234   6 C  py              155     -0.164234   8 C  py        

 Vector   22  Occ=1.000000D+00  E=-5.270308D-01  Symmetry=b1
              MO Center=  2.2D-14,  2.5D-17, -2.4D-01, r^2= 3.7D+00
   Bfn.  Coefficient  Atom+Function         Bfn.  Coefficient  Atom+Function  
  ----- ------------  ---------------      ----- ------------  ---------------
   110      0.147975   6 C  px              154      0.147975   8 C  px        

 Vector   23  Occ=1.000000D+00  E=-4.511478D-01  Symmetry=a2
              MO Center= -2.3D-15,  1.5D-14, -4.0D-01, r^2= 3.5D+00
   Bfn.  Coefficient  Atom+Function         Bfn.  Coefficient  Atom+Function  
  ----- ------------  ---------------      ----- ------------  ---------------
   110      0.211631   6 C  px              154     -0.211631   8 C  px        
   107      0.157731   6 C  px              151     -0.157731   8 C  px        

 Vector   24  Occ=1.000000D+00  E=-4.401485D-01  Symmetry=b1
              MO Center=  3.6D-15,  3.1D-16,  6.4D-02, r^2= 2.8D+00
   Bfn.  Coefficient  Atom+Function         Bfn.  Coefficient  Atom+Function  
  ----- ------------  ---------------      ----- ------------  ---------------
    23      0.175653   2 C  py               67     -0.175653   4 C  py        
   287     -0.175653  14 C  py              331      0.175653  16 C  py        

 Vector   25  Occ=1.000000D+00  E=-4.138289D-01  Symmetry=b2
              MO Center=  1.1D-15, -6.2D-14,  1.8D-01, r^2= 3.7D+00
   Bfn.  Coefficient  Atom+Function         Bfn.  Coefficient  Atom+Function  
  ----- ------------  ---------------      ----- ------------  ---------------
   194      0.196313  10 C  s               238     -0.196313  12 C  s         
   200     -0.177064  10 C  pz              244      0.177064  12 C  pz        
   203     -0.159837  10 C  pz              247      0.159837  12 C  pz        

 Vector   26  Occ=1.000000D+00  E=-4.131546D-01  Symmetry=a1
              MO Center=  1.4D-15,  6.9D-14,  4.7D-01, r^2= 3.0D+00
   Bfn.  Coefficient  Atom+Function         Bfn.  Coefficient  Atom+Function  
  ----- ------------  ---------------      ----- ------------  ---------------
   199      0.229607  10 C  py              243     -0.229607  12 C  py        
   196      0.168195  10 C  py              240     -0.168195  12 C  py        

 Vector   27  Occ=1.000000D+00  E=-3.813725D-01  Symmetry=a2
              MO Center=  1.8D-14, -2.6D-14,  4.6D-01, r^2= 3.0D+00
   Bfn.  Coefficient  Atom+Function         Bfn.  Coefficient  Atom+Function  
  ----- ------------  ---------------      ----- ------------  ---------------
   198      0.216049  10 C  px              242     -0.216049  12 C  px        
   195      0.155797  10 C  px              239     -0.155797  12 C  px        

 Vector   28  Occ=1.000000D+00  E=-3.707621D-01  Symmetry=b2
              MO Center= -2.5D-15,  1.2D-13, -8.8D-01, r^2= 3.4D+00
   Bfn.  Coefficient  Atom+Function         Bfn.  Coefficient  Atom+Function  
  ----- ------------  ---------------      ----- ------------  ---------------
   111      0.316316   6 C  py              155      0.316316   8 C  py        
   114      0.278361   6 C  py              158      0.278361   8 C  py        
   108      0.218750   6 C  py              152      0.218750   8 C  py        

 Vector   29  Occ=1.000000D+00  E=-3.045924D-01  Symmetry=a1
              MO Center=  4.1D-14, -6.8D-14, -5.3D-01, r^2= 3.8D+00
   Bfn.  Coefficient  Atom+Function         Bfn.  Coefficient  Atom+Function  
  ----- ------------  ---------------      ----- ------------  ---------------
   114      0.282100   6 C  py              158     -0.282100   8 C  py        
   111      0.248775   6 C  py              155     -0.248775   8 C  py        
   108      0.171520   6 C  py              152     -0.171520   8 C  py        

 Vector   30  Occ=0.000000D+00  E= 1.458372D-01  Symmetry=a1
              MO Center=  0.0D+00, -2.5D-15,  3.4D-01, r^2= 1.2D+01
   Bfn.  Coefficient  Atom+Function         Bfn.  Coefficient  Atom+Function  
  ----- ------------  ---------------      ----- ------------  ---------------
   179      0.998832   9 H  s               223      0.998832  11 H  s         
     3      0.991331   1 H  s                47      0.991331   3 H  s         
   267      0.991331  13 H  s               311      0.991331  15 H  s         
    18     -0.888876   2 C  s                62     -0.888876   4 C  s         
   282     -0.888876  14 C  s               326     -0.888876  16 C  s         

 Vector   31  Occ=0.000000D+00  E= 1.582271D-01  Symmetry=a1
              MO Center= -2.2D-16,  8.5D-16, -9.9D-01, r^2= 1.0D+01
   Bfn.  Coefficient  Atom+Function         Bfn.  Coefficient  Atom+Function  
  ----- ------------  ---------------      ----- ------------  ---------------
   194      1.538572  10 C  s               238      1.538572  12 C  s         
    91      1.464269   5 H  s               135      1.464269   7 H  s         
   106     -1.405944   6 C  s               150     -1.405944   8 C  s         
   179     -0.798408   9 H  s               223     -0.798408  11 H  s         
   115      0.752680   6 C  pz              159      0.752680   8 C  pz        

 Vector   32  Occ=0.000000D+00  E= 1.627897D-01  Symmetry=b1
              MO Center=  2.2D-15,  1.6D-15,  9.2D-02, r^2= 1.2D+01
   Bfn.  Coefficient  Atom+Function         Bfn.  Coefficient  Atom+Function  
  ----- ------------  ---------------      ----- ------------  ---------------
    18      1.496852   2 C  s                62      1.496852   4 C  s         
   282     -1.496852  14 C  s               326     -1.496852  16 C  s         
     3     -1.318012   1 H  s                47     -1.318012   3 H  s         
   267      1.318012  13 H  s               311      1.318012  15 H  s         
    25      0.557404   2 C  px               69      0.557404   4 C  px        

 Vector   33  Occ=0.000000D+00  E= 1.801321D-01  Symmetry=b2
              MO Center=  7.4D-14,  3.7D-13,  1.1D+00, r^2= 1.2D+01
   Bfn.  Coefficient  Atom+Function         Bfn.  Coefficient  Atom+Function  
  ----- ------------  ---------------      ----- ------------  ---------------
   179      1.810375   9 H  s               223     -1.810375  11 H  s         
   203     -1.225589  10 C  pz              247      1.225589  12 C  pz        
   106     -1.097091   6 C  s               150      1.097091   8 C  s         
     3      0.976427   1 H  s                47     -0.976427   3 H  s         
   267      0.976427  13 H  s               311     -0.976427  15 H  s         

 Vector   34  Occ=0.000000D+00  E= 1.905890D-01  Symmetry=a1
              MO Center= -2.1D-15, -1.1D-13,  4.6D-01, r^2= 1.3D+01
   Bfn.  Coefficient  Atom+Function         Bfn.  Coefficient  Atom+Function  
  ----- ------------  ---------------      ----- ------------  ---------------
   179      1.538626   9 H  s               223      1.538626  11 H  s         
   194     -1.251232  10 C  s               238     -1.251232  12 C  s         
    91      1.097873   5 H  s               135      1.097873   7 H  s         
     3     -1.072608   1 H  s                47     -1.072608   3 H  s         
   267     -1.072608  13 H  s               311     -1.072608  15 H  s         

 Vector   35  Occ=0.000000D+00  E= 1.989425D-01  Symmetry=a2
              MO Center= -1.8D-13,  1.6D-15,  5.9D-02, r^2= 1.3D+01
   Bfn.  Coefficient  Atom+Function         Bfn.  Coefficient  Atom+Function  
  ----- ------------  ---------------      ----- ------------  ---------------
     3      1.929570   1 H  s                47     -1.929570   3 H  s         
   267     -1.929570  13 H  s               311      1.929570  15 H  s         
    18     -1.778404   2 C  s                62      1.778404   4 C  s         
   282      1.778404  14 C  s               326     -1.778404  16 C  s         
    25     -1.578220   2 C  px               69      1.578220   4 C  px        

 Vector   36  Occ=0.000000D+00  E= 2.052975D-01  Symmetry=b2
              MO Center= -6.3D-15, -2.7D-15, -7.3D-01, r^2= 1.3D+01
   Bfn.  Coefficient  Atom+Function         Bfn.  Coefficient  Atom+Function  
  ----- ------------  ---------------      ----- ------------  ---------------
   106      3.761178   6 C  s               150     -3.761178   8 C  s         
    18     -2.261774   2 C  s                62      2.261774   4 C  s         
   282     -2.261774  14 C  s               326      2.261774  16 C  s         
   203     -2.050988  10 C  pz              247      2.050988  12 C  pz        
   179      1.861203   9 H  s               223     -1.861203  11 H  s         

 Vector   37  Occ=0.000000D+00  E= 2.266402D-01  Symmetry=b2
              MO Center= -3.2D-15, -2.8D-15, -5.6D-01, r^2= 1.4D+01
   Bfn.  Coefficient  Atom+Function         Bfn.  Coefficient  Atom+Function  
  ----- ------------  ---------------      ----- ------------  ---------------
   194      2.914935  10 C  s               238     -2.914935  12 C  s         
    25      2.157588   2 C  px               69     -2.157588   4 C  px        
   289     -2.157588  14 C  px              333      2.157588  16 C  px        
   203     -1.941710  10 C  pz              247      1.941710  12 C  pz        
    91      1.813962   5 H  s               135     -1.813962   7 H  s         

 Vector   38  Occ=0.000000D+00  E= 2.309821D-01  Symmetry=a1
              MO Center=  3.8D-15, -8.0D-14,  3.4D-01, r^2= 8.4D+00
   Bfn.  Coefficient  Atom+Function         Bfn.  Coefficient  Atom+Function  
  ----- ------------  ---------------      ----- ------------  ---------------
   203      1.597900  10 C  pz              247      1.597900  12 C  pz        
   179     -1.337327   9 H  s               223     -1.337327  11 H  s         
   194     -1.264951  10 C  s               238     -1.264951  12 C  s         
   115      1.120878   6 C  pz              159      1.120878   8 C  pz        
    91      1.079066   5 H  s               135      1.079066   7 H  s         

 Vector   39  Occ=0.000000D+00  E= 2.402411D-01  Symmetry=b1
              MO Center=  1.1D-12,  1.8D-13,  3.1D-01, r^2= 7.9D+00
   Bfn.  Coefficient  Atom+Function         Bfn.  Coefficient  Atom+Function  
  ----- ------------  ---------------      ----- ------------  ---------------
    25      1.380803   2 C  px               69      1.380803   4 C  px        
   289      1.380803  14 C  px              333      1.380803  16 C  px        
    18     -1.190869   2 C  s                62     -1.190869   4 C  s         
   282      1.190869  14 C  s               326      1.190869  16 C  s         
     3     -1.158763   1 H  s                47     -1.158763   3 H  s         

 Vector   40  Occ=0.000000D+00  E= 2.876703D-01  Symmetry=b2
              MO Center=  1.4D-16, -2.5D-15,  8.4D-01, r^2= 6.1D+00
   Bfn.  Coefficient  Atom+Function         Bfn.  Coefficient  Atom+Function  
  ----- ------------  ---------------      ----- ------------  ---------------
   194      3.449507  10 C  s               238     -3.449507  12 C  s         
   202      2.645256  10 C  py              246      2.645256  12 C  py        
   179      1.206844   9 H  s               223     -1.206844  11 H  s         
    18      0.824079   2 C  s                62     -0.824079   4 C  s         
   282      0.824079  14 C  s               326     -0.824079  16 C  s         

 Vector   41  Occ=0.000000D+00  E= 3.292319D-01  Symmetry=a1
              MO Center=  1.1D-13,  2.0D-14, -4.6D-01, r^2= 7.9D+00
   Bfn.  Coefficient  Atom+Function         Bfn.  Coefficient  Atom+Function  
  ----- ------------  ---------------      ----- ------------  ---------------
   106     -4.645590   6 C  s               150     -4.645590   8 C  s         
    18      4.257084   2 C  s                62      4.257084   4 C  s         
   282      4.257084  14 C  s               326      4.257084  16 C  s         
   194     -3.520129  10 C  s               238     -3.520129  12 C  s         
   115     -2.340874   6 C  pz              159     -2.340874   8 C  pz        

 Vector   42  Occ=0.000000D+00  E= 3.398519D-01  Symmetry=a2
              MO Center= -2.5D-14, -1.5D-15, -9.3D-02, r^2= 7.2D+00
   Bfn.  Coefficient  Atom+Function         Bfn.  Coefficient  Atom+Function  
  ----- ------------  ---------------      ----- ------------  ---------------
    18      3.206342   2 C  s                62     -3.206342   4 C  s         
   282     -3.206342  14 C  s               326      3.206342  16 C  s         
    26      2.355238   2 C  py               70      2.355238   4 C  py        
   290     -2.355238  14 C  py              334     -2.355238  16 C  py        
     3      1.205639   1 H  s                47     -1.205639   3 H  s         

 Vector   43  Occ=0.000000D+00  E= 3.435973D-01  Symmetry=b1
              MO Center=  1.0D-15, -9.3D-16, -5.2D-01, r^2= 6.3D+00
   Bfn.  Coefficient  Atom+Function         Bfn.  Coefficient  Atom+Function  
  ----- ------------  ---------------      ----- ------------  ---------------
   113      2.020539   6 C  px              157      2.020539   8 C  px        
    18     -1.153953   2 C  s                62     -1.153953   4 C  s         
   282      1.153953  14 C  s               326      1.153953  16 C  s         
    27      1.132664   2 C  pz               71      1.132664   4 C  pz        
   291     -1.132664  14 C  pz              335     -1.132664  16 C  pz        

 Vector   44  Occ=0.000000D+00  E= 3.465399D-01  Symmetry=a2
              MO Center= -2.5D-14, -2.3D-14, -6.1D-01, r^2= 8.3D+00
   Bfn.  Coefficient  Atom+Function         Bfn.  Coefficient  Atom+Function  
  ----- ------------  ---------------      ----- ------------  ---------------
    18      4.502663   2 C  s                62     -4.502663   4 C  s         
   282     -4.502663  14 C  s               326      4.502663  16 C  s         
    25     -2.754813   2 C  px               69      2.754813   4 C  px        
   289     -2.754813  14 C  px              333      2.754813  16 C  px        
   113     -1.905802   6 C  px              157      1.905802   8 C  px        

 Vector   45  Occ=0.000000D+00  E= 3.476808D-01  Symmetry=b2
              MO Center= -8.2D-14, -9.7D-15, -3.7D-01, r^2= 8.5D+00
   Bfn.  Coefficient  Atom+Function         Bfn.  Coefficient  Atom+Function  
  ----- ------------  ---------------      ----- ------------  ---------------
   194      4.829416  10 C  s               238     -4.829416  12 C  s         
   106     -3.648584   6 C  s               150      3.648584   8 C  s         
   203     -2.520718  10 C  pz              247      2.520718  12 C  pz        
   115     -1.999832   6 C  pz              159      1.999832   8 C  pz        
    27     -1.877107   2 C  pz               71      1.877107   4 C  pz        

 Vector   46  Occ=0.000000D+00  E= 3.811672D-01  Symmetry=b1
              MO Center=  7.8D-16, -3.7D-16,  1.1D-01, r^2= 6.6D+00
   Bfn.  Coefficient  Atom+Function         Bfn.  Coefficient  Atom+Function  
  ----- ------------  ---------------      ----- ------------  ---------------
    27      0.622260   2 C  pz               71      0.622260   4 C  pz        
   291     -0.622260  14 C  pz              335     -0.622260  16 C  pz        
   198     -0.338730  10 C  px              242     -0.338730  12 C  px        
   110      0.310869   6 C  px              154      0.310869   8 C  px        
    26      0.292640   2 C  py               70     -0.292640   4 C  py        

 Vector   47  Occ=0.000000D+00  E= 3.812127D-01  Symmetry=a1
              MO Center=  2.0D-14, -2.5D-14,  2.6D-01, r^2= 6.5D+00
   Bfn.  Coefficient  Atom+Function         Bfn.  Coefficient  Atom+Function  
  ----- ------------  ---------------      ----- ------------  ---------------
    90      0.668709   5 H  s               134      0.668709   7 H  s         
   202      0.502662  10 C  py              246     -0.502662  12 C  py        
   115      0.489065   6 C  pz              159      0.489065   8 C  pz        
    18     -0.451572   2 C  s                62     -0.451572   4 C  s         
   282     -0.451572  14 C  s               326     -0.451572  16 C  s         

 Vector   48  Occ=0.000000D+00  E= 4.047465D-01  Symmetry=b2
              MO Center=  3.2D-14, -1.8D-13, -6.8D-01, r^2= 8.6D+00
   Bfn.  Coefficient  Atom+Function         Bfn.  Coefficient  Atom+Function  
  ----- ------------  ---------------      ----- ------------  ---------------
   194      9.487335  10 C  s               238     -9.487335  12 C  s         
    18     -6.673178   2 C  s                62      6.673178   4 C  s         
   282     -6.673178  14 C  s               326      6.673178  16 C  s         
   106      4.777006   6 C  s               150     -4.777006   8 C  s         
   203     -3.588034  10 C  pz              247      3.588034  12 C  pz        

 Vector   49  Occ=0.000000D+00  E= 4.079809D-01  Symmetry=a1
              MO Center= -1.0D-13, -3.9D-14,  6.2D-01, r^2= 6.9D+00
   Bfn.  Coefficient  Atom+Function         Bfn.  Coefficient  Atom+Function  
  ----- ------------  ---------------      ----- ------------  ---------------
    18      1.344679   2 C  s                62      1.344679   4 C  s         
   282      1.344679  14 C  s               326      1.344679  16 C  s         
   203      1.174208  10 C  pz              247      1.174208  12 C  pz        
   115     -0.931866   6 C  pz              159     -0.931866   8 C  pz        
    90     -0.799361   5 H  s               134     -0.799361   7 H  s         

 Vector   50  Occ=0.000000D+00  E= 4.232239D-01  Symmetry=a2
              MO Center=  1.7D-13,  5.0D-14,  8.0D-01, r^2= 7.3D+00
   Bfn.  Coefficient  Atom+Function         Bfn.  Coefficient  Atom+Function  
  ----- ------------  ---------------      ----- ------------  ---------------
   201      2.469208  10 C  px              245     -2.469208  12 C  px        
   113     -1.414388   6 C  px              157      1.414388   8 C  px        
    27     -0.925726   2 C  pz               71      0.925726   4 C  pz        
   291      0.925726  14 C  pz              335     -0.925726  16 C  pz        
    18     -0.916964   2 C  s                62      0.916964   4 C  s         

 Vector   51  Occ=0.000000D+00  E= 4.234404D-01  Symmetry=b1
              MO Center=  1.1D-15, -3.3D-16,  1.9D-01, r^2= 7.8D+00
   Bfn.  Coefficient  Atom+Function         Bfn.  Coefficient  Atom+Function  
  ----- ------------  ---------------      ----- ------------  ---------------
    26      0.768504   2 C  py               70     -0.768504   4 C  py        
   290     -0.768504  14 C  py              334      0.768504  16 C  py        
   201     -0.565802  10 C  px              245     -0.565802  12 C  px        
    25      0.415233   2 C  px               69      0.415233   4 C  px        
   289      0.415233  14 C  px              333      0.415233  16 C  px        

 Vector   52  Occ=0.000000D+00  E= 4.603948D-01  Symmetry=b2
              MO Center=  3.0D-14,  1.5D-14,  3.4D-01, r^2= 7.2D+00
   Bfn.  Coefficient  Atom+Function         Bfn.  Coefficient  Atom+Function  
  ----- ------------  ---------------      ----- ------------  ---------------
   194      5.909102  10 C  s               238     -5.909102  12 C  s         
   202      4.272608  10 C  py              246      4.272608  12 C  py        
    26     -3.181483   2 C  py               70     -3.181483   4 C  py        
   290     -3.181483  14 C  py              334     -3.181483  16 C  py        
    18     -2.786340   2 C  s                62      2.786340   4 C  s         

 Vector   53  Occ=0.000000D+00  E= 4.820062D-01  Symmetry=a1
              MO Center= -8.5D-13,  2.2D-12, -7.6D-01, r^2= 8.3D+00
   Bfn.  Coefficient  Atom+Function         Bfn.  Coefficient  Atom+Function  
  ----- ------------  ---------------      ----- ------------  ---------------
   114      1.243882   6 C  py              158     -1.243882   8 C  py        
    26     -0.773334   2 C  py               70      0.773334   4 C  py        
   290     -0.773334  14 C  py              334      0.773334  16 C  py        
   106     -0.658853   6 C  s               150     -0.658853   8 C  s         
    90      0.576671   5 H  s               134      0.576671   7 H  s         

 Vector   54  Occ=0.000000D+00  E= 4.914786D-01  Symmetry=a1
              MO Center= -1.3D-13, -8.1D-13, -2.1D-01, r^2= 6.0D+00
   Bfn.  Coefficient  Atom+Function         Bfn.  Coefficient  Atom+Function  
  ----- ------------  ---------------      ----- ------------  ---------------
   194      1.963556  10 C  s               238      1.963556  12 C  s         
   203     -1.020731  10 C  pz              247     -1.020731  12 C  pz        
   202      0.839122  10 C  py              246     -0.839122  12 C  py        
    26     -0.757372   2 C  py               70      0.757372   4 C  py        
   290     -0.757372  14 C  py              334      0.757372  16 C  py        

 Vector   55  Occ=0.000000D+00  E= 4.929805D-01  Symmetry=a2
              MO Center= -1.8D-14,  3.0D-15, -1.5D-01, r^2= 7.4D+00
   Bfn.  Coefficient  Atom+Function         Bfn.  Coefficient  Atom+Function  
  ----- ------------  ---------------      ----- ------------  ---------------
    27      2.871699   2 C  pz               71     -2.871699   4 C  pz        
   291     -2.871699  14 C  pz              335      2.871699  16 C  pz        
   113      2.160754   6 C  px              157     -2.160754   8 C  px        
    26      2.049062   2 C  py               70      2.049062   4 C  py        
   290     -2.049062  14 C  py              334     -2.049062  16 C  py        

 Vector   56  Occ=0.000000D+00  E= 5.237973D-01  Symmetry=a1
              MO Center= -4.7D-13, -1.0D-13,  3.1D-01, r^2= 7.4D+00
   Bfn.  Coefficient  Atom+Function         Bfn.  Coefficient  Atom+Function  
  ----- ------------  ---------------      ----- ------------  ---------------
   106      3.677913   6 C  s               150      3.677913   8 C  s         
   115      1.846055   6 C  pz              159      1.846055   8 C  pz        
   203      1.813776  10 C  pz              247      1.813776  12 C  pz        
   179     -1.164864   9 H  s               223     -1.164864  11 H  s         
   194     -1.088415  10 C  s               238     -1.088415  12 C  s         


                     UHF Final Beta Molecular Orbital Analysis
                     -----------------------------------------

 Vector    9  Occ=1.000000D+00  E=-1.209109D+00  Symmetry=a1
              MO Center=  8.3D-17,  2.3D-17,  2.1D-01, r^2= 1.8D+00
   Bfn.  Coefficient  Atom+Function         Bfn.  Coefficient  Atom+Function  
  ----- ------------  ---------------      ----- ------------  ---------------
   192      0.193558  10 C  s               236      0.193558  12 C  s         
    16      0.172309   2 C  s                60      0.172309   4 C  s         
   280      0.172309  14 C  s               324      0.172309  16 C  s         

 Vector   10  Occ=1.000000D+00  E=-1.016915D+00  Symmetry=b2
              MO Center=  5.6D-17,  6.9D-18, -6.1D-02, r^2= 2.5D+00
   Bfn.  Coefficient  Atom+Function         Bfn.  Coefficient  Atom+Function  
  ----- ------------  ---------------      ----- ------------  ---------------
   104      0.186924   6 C  s               148     -0.186924   8 C  s         
    16      0.170819   2 C  s                60     -0.170819   4 C  s         
   280      0.170819  14 C  s               324     -0.170819  16 C  s         

 Vector   11  Occ=1.000000D+00  E=-9.566555D-01  Symmetry=b1
              MO Center=  1.1D-16, -1.1D-16,  7.5D-03, r^2= 2.8D+00
   Bfn.  Coefficient  Atom+Function         Bfn.  Coefficient  Atom+Function  
  ----- ------------  ---------------      ----- ------------  ---------------
    16      0.239759   2 C  s                60      0.239759   4 C  s         
   280     -0.239759  14 C  s               324     -0.239759  16 C  s         

 Vector   12  Occ=1.000000D+00  E=-9.104907D-01  Symmetry=a1
              MO Center= -3.7D-15,  4.4D-14,  2.2D-01, r^2= 3.0D+00
   Bfn.  Coefficient  Atom+Function         Bfn.  Coefficient  Atom+Function  
  ----- ------------  ---------------      ----- ------------  ---------------
   192      0.242892  10 C  s               236      0.242892  12 C  s         
   104     -0.191990   6 C  s               148     -0.191990   8 C  s         

 Vector   13  Occ=1.000000D+00  E=-7.838995D-01  Symmetry=a2
              MO Center= -1.5D-14,  1.4D-14, -8.7D-02, r^2= 3.9D+00
   Bfn.  Coefficient  Atom+Function         Bfn.  Coefficient  Atom+Function  
  ----- ------------  ---------------      ----- ------------  ---------------
    16      0.218589   2 C  s                60     -0.218589   4 C  s         
   280     -0.218589  14 C  s               324      0.218589  16 C  s         

 Vector   14  Occ=1.000000D+00  E=-7.682598D-01  Symmetry=b2
              MO Center= -6.6D-16, -3.8D-15,  1.2D-01, r^2= 4.2D+00
   Bfn.  Coefficient  Atom+Function         Bfn.  Coefficient  Atom+Function  
  ----- ------------  ---------------      ----- ------------  ---------------
   192     -0.224543  10 C  s               236      0.224543  12 C  s         
   104      0.208837   6 C  s               148     -0.208837   8 C  s         

 Vector   15  Occ=1.000000D+00  E=-7.344641D-01  Symmetry=a1
              MO Center=  2.3D-14, -2.5D-15, -2.6D-01, r^2= 4.2D+00
   Bfn.  Coefficient  Atom+Function         Bfn.  Coefficient  Atom+Function  
  ----- ------------  ---------------      ----- ------------  ---------------
   104      0.180076   6 C  s               148      0.180076   8 C  s         

 Vector   16  Occ=1.000000D+00  E=-6.919966D-01  Symmetry=a1
              MO Center=  0.0D+00,  1.5D-18,  3.1D-01, r^2= 4.3D+00
   Bfn.  Coefficient  Atom+Function         Bfn.  Coefficient  Atom+Function  
  ----- ------------  ---------------      ----- ------------  ---------------
   178      0.119096   9 H  s               222      0.119096  11 H  s         
   200      0.111949  10 C  pz              244      0.111949  12 C  pz        

 Vector   17  Occ=1.000000D+00  E=-6.402494D-01  Symmetry=b2
              MO Center=  5.3D-14, -9.0D-15, -1.9D-01, r^2= 5.3D+00
   Bfn.  Coefficient  Atom+Function         Bfn.  Coefficient  Atom+Function  
  ----- ------------  ---------------      ----- ------------  ---------------
   104     -0.120995   6 C  s               148      0.120995   8 C  s         
    90     -0.117325   5 H  s               134      0.117325   7 H  s         
   192     -0.117307  10 C  s               236      0.117307  12 C  s         
    16      0.111179   2 C  s                60     -0.111179   4 C  s         
   280      0.111179  14 C  s               324     -0.111179  16 C  s         

 Vector   18  Occ=1.000000D+00  E=-6.062972D-01  Symmetry=a1
              MO Center=  3.1D-16,  3.0D-15, -2.2D-01, r^2= 3.8D+00
   Bfn.  Coefficient  Atom+Function         Bfn.  Coefficient  Atom+Function  
  ----- ------------  ---------------      ----- ------------  ---------------
   199      0.158801  10 C  py              243     -0.158801  12 C  py        

 Vector   19  Occ=1.000000D+00  E=-6.029610D-01  Symmetry=b2
              MO Center= -1.9D-14, -4.2D-15, -1.0D-01, r^2= 4.5D+00
   Bfn.  Coefficient  Atom+Function         Bfn.  Coefficient  Atom+Function  
  ----- ------------  ---------------      ----- ------------  ---------------
    22      0.128115   2 C  px               66     -0.128115   4 C  px        
   286     -0.128115  14 C  px              330      0.128115  16 C  px        

 Vector   20  Occ=1.000000D+00  E=-5.693377D-01  Symmetry=b1
              MO Center=  1.1D-16, -5.6D-16,  1.4D-01, r^2= 3.1D+00
   Bfn.  Coefficient  Atom+Function         Bfn.  Coefficient  Atom+Function  
  ----- ------------  ---------------      ----- ------------  ---------------
   198      0.151541  10 C  px              242      0.151541  12 C  px        

 Vector   21  Occ=1.000000D+00  E=-5.180722D-01  Symmetry=b1
              MO Center=  6.7D-16, -7.1D-15, -2.3D-01, r^2= 3.7D+00
   Bfn.  Coefficient  Atom+Function         Bfn.  Coefficient  Atom+Function  
  ----- ------------  ---------------      ----- ------------  ---------------
   110     -0.133996   6 C  px              154     -0.133996   8 C  px        
    22      0.129817   2 C  px               66      0.129817   4 C  px        
   286      0.129817  14 C  px              330      0.129817  16 C  px        

 Vector   22  Occ=1.000000D+00  E=-4.940600D-01  Symmetry=a1
              MO Center= -1.5D-14, -1.0D-14,  1.9D-01, r^2= 3.4D+00
   Bfn.  Coefficient  Atom+Function         Bfn.  Coefficient  Atom+Function  
  ----- ------------  ---------------      ----- ------------  ---------------
   200      0.149416  10 C  pz              244      0.149416  12 C  pz        

 Vector   23  Occ=1.000000D+00  E=-4.362900D-01  Symmetry=a2
              MO Center=  2.6D-14, -1.9D-14, -3.7D-01, r^2= 3.5D+00
   Bfn.  Coefficient  Atom+Function         Bfn.  Coefficient  Atom+Function  
  ----- ------------  ---------------      ----- ------------  ---------------
   110      0.191351   6 C  px              154     -0.191351   8 C  px        

 Vector   24  Occ=1.000000D+00  E=-4.232271D-01  Symmetry=b1
              MO Center=  6.4D-15,  4.3D-16,  3.2D-02, r^2= 2.8D+00
   Bfn.  Coefficient  Atom+Function         Bfn.  Coefficient  Atom+Function  
  ----- ------------  ---------------      ----- ------------  ---------------
    23      0.181886   2 C  py               67     -0.181886   4 C  py        
   287     -0.181886  14 C  py              331      0.181886  16 C  py        

 Vector   25  Occ=1.000000D+00  E=-4.052189D-01  Symmetry=b2
              MO Center=  7.1D-14, -7.7D-14,  1.7D-01, r^2= 3.7D+00
   Bfn.  Coefficient  Atom+Function         Bfn.  Coefficient  Atom+Function  
  ----- ------------  ---------------      ----- ------------  ---------------
   194      0.186932  10 C  s               238     -0.186932  12 C  s         
   200     -0.172032  10 C  pz              244      0.172032  12 C  pz        
   203     -0.155700  10 C  pz              247      0.155700  12 C  pz        

 Vector   26  Occ=1.000000D+00  E=-4.024163D-01  Symmetry=a1
              MO Center= -7.8D-15,  3.3D-14,  4.8D-01, r^2= 3.0D+00
   Bfn.  Coefficient  Atom+Function         Bfn.  Coefficient  Atom+Function  
  ----- ------------  ---------------      ----- ------------  ---------------
   199      0.226370  10 C  py              243     -0.226370  12 C  py        
   196      0.166454  10 C  py              240     -0.166454  12 C  py        
   202      0.151180  10 C  py              246     -0.151180  12 C  py        

 Vector   27  Occ=1.000000D+00  E=-3.800234D-01  Symmetry=a2
              MO Center=  1.6D-14, -2.6D-14,  4.5D-01, r^2= 3.0D+00
   Bfn.  Coefficient  Atom+Function         Bfn.  Coefficient  Atom+Function  
  ----- ------------  ---------------      ----- ------------  ---------------
   198      0.213071  10 C  px              242     -0.213071  12 C  px        
   195      0.154137  10 C  px              239     -0.154137  12 C  px        

 Vector   28  Occ=0.000000D+00  E= 1.131016D-01  Symmetry=b2
              MO Center=  0.0D+00, -5.5D-15, -4.5D-01, r^2= 5.7D+00
   Bfn.  Coefficient  Atom+Function         Bfn.  Coefficient  Atom+Function  
  ----- ------------  ---------------      ----- ------------  ---------------
   194      1.476685  10 C  s               238     -1.476685  12 C  s         
   106      1.273335   6 C  s               150     -1.273335   8 C  s         
   114      0.693388   6 C  py              158      0.693388   8 C  py        
    25      0.585217   2 C  px               69     -0.585217   4 C  px        
   289     -0.585217  14 C  px              333      0.585217  16 C  px        

 Vector   29  Occ=0.000000D+00  E= 1.288708D-01  Symmetry=a1
              MO Center=  4.3D-14,  2.1D-13, -9.5D-01, r^2= 6.7D+00
   Bfn.  Coefficient  Atom+Function         Bfn.  Coefficient  Atom+Function  
  ----- ------------  ---------------      ----- ------------  ---------------
    18      1.012291   2 C  s                62      1.012291   4 C  s         
   282      1.012291  14 C  s               326      1.012291  16 C  s         
    91     -0.750236   5 H  s               135     -0.750236   7 H  s         
     3     -0.571610   1 H  s                47     -0.571610   3 H  s         
   267     -0.571610  13 H  s               311     -0.571610  15 H  s         

 Vector   30  Occ=0.000000D+00  E= 1.517415D-01  Symmetry=a1
              MO Center= -3.9D-16, -3.6D-16,  1.2D+00, r^2= 1.0D+01
   Bfn.  Coefficient  Atom+Function         Bfn.  Coefficient  Atom+Function  
  ----- ------------  ---------------      ----- ------------  ---------------
   194      1.496245  10 C  s               238      1.496245  12 C  s         
   179     -1.337423   9 H  s               223     -1.337423  11 H  s         
     3     -0.792533   1 H  s                47     -0.792533   3 H  s         
   267     -0.792533  13 H  s               311     -0.792533  15 H  s         
   202     -0.478176  10 C  py              246      0.478176  12 C  py        

 Vector   31  Occ=0.000000D+00  E= 1.637540D-01  Symmetry=b1
              MO Center= -1.1D-13,  1.1D-15,  9.6D-02, r^2= 1.2D+01
   Bfn.  Coefficient  Atom+Function         Bfn.  Coefficient  Atom+Function  
  ----- ------------  ---------------      ----- ------------  ---------------
    18      1.491950   2 C  s                62      1.491950   4 C  s         
   282     -1.491950  14 C  s               326     -1.491950  16 C  s         
     3     -1.323326   1 H  s                47     -1.323326   3 H  s         
   267      1.323326  13 H  s               311      1.323326  15 H  s         
    25      0.561838   2 C  px               69      0.561838   4 C  px        

 Vector   32  Occ=0.000000D+00  E= 1.721596D-01  Symmetry=a1
              MO Center= -8.3D-14,  1.1D-13, -1.6D+00, r^2= 7.7D+00
   Bfn.  Coefficient  Atom+Function         Bfn.  Coefficient  Atom+Function  
  ----- ------------  ---------------      ----- ------------  ---------------
   106      1.724619   6 C  s               150      1.724619   8 C  s         
    91     -1.449727   5 H  s               135     -1.449727   7 H  s         
   194     -0.915760  10 C  s               238     -0.915760  12 C  s         
   115     -0.660407   6 C  pz              159     -0.660407   8 C  pz        
    27      0.462037   2 C  pz               71      0.462037   4 C  pz        

 Vector   33  Occ=0.000000D+00  E= 1.896382D-01  Symmetry=b2
              MO Center= -5.9D-14, -4.5D-14,  1.6D+00, r^2= 1.0D+01
   Bfn.  Coefficient  Atom+Function         Bfn.  Coefficient  Atom+Function  
  ----- ------------  ---------------      ----- ------------  ---------------
   179      2.262301   9 H  s               223     -2.262301  11 H  s         
   203     -1.754844  10 C  pz              247      1.754844  12 C  pz        
   202      1.433775  10 C  py              246      1.433775  12 C  py        
    18     -1.365944   2 C  s                62      1.365944   4 C  s         
   282     -1.365944  14 C  s               326      1.365944  16 C  s         

 Vector   34  Occ=0.000000D+00  E= 1.949154D-01  Symmetry=a1
              MO Center= -1.1D-15,  3.8D-15,  1.7D-01, r^2= 1.3D+01
   Bfn.  Coefficient  Atom+Function         Bfn.  Coefficient  Atom+Function  
[...]
   18 Stretch                 14    16                       1.61057   -0.00457
   19 Stretch                 15    16                       1.08683   -0.01462
   20 Bend                     1     2     4               115.47229   -0.09155
   21 Bend                     1     2     6               122.36090    0.29169
   22 Bend                     1     2    10               124.97509    0.09482
   23 Bend                     2     4     3               115.47229   -0.09155
   24 Bend                     2     4     8               109.97172   -0.27617
   25 Bend                     2     4    12                88.77157   -0.12899
   26 Bend                     2     6     5               131.85037    0.64324
   27 Bend                     2     6    14                90.96629    0.31465
   28 Bend                     2    10     9               124.08046   -0.16618
   29 Bend                     2    10    12                91.22843    0.12899
   30 Bend                     2    10    14                85.64334   -0.09672
   31 Bend                     3     4     8               122.36090    0.29169
   32 Bend                     3     4    12               124.97509    0.09482
   33 Bend                     4     2     6               109.97172   -0.27617
   34 Bend                     4     2    10                88.77157   -0.12899
   35 Bend                     4     8     7               131.85037    0.64324
   36 Bend                     4     8    16                90.96629    0.31465
   37 Bend                     4    12    10                91.22843    0.12899
   38 Bend                     4    12    11               124.08046   -0.16618
   39 Bend                     4    12    16                85.64334   -0.09672
   40 Bend                     5     6    14               131.85037    0.64324
   41 Bend                     6     2    10                88.37052    0.01974
   42 Bend                     6    14    10                88.37052    0.01974
   43 Bend                     6    14    13               122.36090    0.29169
   44 Bend                     6    14    16               109.97172   -0.27617
   45 Bend                     7     8    16               131.85037    0.64324
   46 Bend                     8     4    12                88.37052    0.01974
   47 Bend                     8    16    12                88.37052    0.01974
   48 Bend                     8    16    14               109.97172   -0.27617
   49 Bend                     8    16    15               122.36090    0.29169
   50 Bend                     9    10    12               128.50899    0.17041
   51 Bend                     9    10    14               124.08046   -0.16618
   52 Bend                    10    12    11               128.50899    0.17041
   53 Bend                    10    12    16                91.22843    0.12899
   54 Bend                    10    14    13               124.97509    0.09482
   55 Bend                    10    14    16                88.77157   -0.12899
   56 Bend                    11    12    16               124.08046   -0.16618
   57 Bend                    12    10    14                91.22843    0.12899
   58 Bend                    12    16    14                88.77157   -0.12899
   59 Bend                    12    16    15               124.97509    0.09482
   60 Bend                    13    14    16               115.47229   -0.09155
   61 Bend                    14    16    15               115.47229   -0.09155
   62 Torsion                  1     2     4     3          -0.00000   -0.00000
   63 Torsion                  1     2     4     8         143.50818    0.01587
   64 Torsion                  1     2     4    12        -128.67275   -0.00100
   65 Torsion                  1     2     6     5         -53.21109    3.25174
   66 Torsion                  1     2     6    14         151.15598   -0.04713
   67 Torsion                  1     2    10     9         -19.37159   -0.43380
   68 Torsion                  1     2    10    12         120.66276   -0.18338
   69 Torsion                  1     2    10    14        -148.19858   -0.06551
   70 Torsion                  2     4     8     7         -87.32341   -3.08261
   71 Torsion                  2     4     8    16          68.30951    0.21626
   72 Torsion                  2     4    12    10           0.00000    0.00000
   73 Torsion                  2     4    12    11         140.03435    0.25042
   74 Torsion                  2     4    12    16         -91.13865   -0.11788
   75 Torsion                  2     6    14    10         -19.79034    0.33531
   76 Torsion                  2     6    14    13        -151.15598    0.04713
   77 Torsion                  2     6    14    16          68.30951    0.21626
   78 Torsion                  2    10    12     4          -0.00000   -0.00000
   79 Torsion                  2    10    12    11        -137.16612   -0.04595
   80 Torsion                  2    10    12    16          85.66775   -0.09189
   81 Torsion                  2    10    14     6          18.88347   -0.39005
   82 Torsion                  2    10    14    13         148.19858    0.06551
   83 Torsion                  2    10    14    16         -91.13865   -0.11788
   84 Torsion                  3     4     2     6        -143.50818   -0.01587
   85 Torsion                  3     4     2    10         128.67275    0.00100
   86 Torsion                  3     4     8     7          53.21109   -3.25174
   87 Torsion                  3     4     8    16        -151.15598    0.04713
   88 Torsion                  3     4    12    10        -120.66276    0.18338
   89 Torsion                  3     4    12    11          19.37159    0.43380
   90 Torsion                  3     4    12    16         148.19858    0.06551
   91 Torsion                  4     2     6     5          87.32341    3.08261
   92 Torsion                  4     2     6    14         -68.30951   -0.21626
   93 Torsion                  4     2    10     9        -140.03435   -0.25042
   94 Torsion                  4     2    10    12          -0.00000   -0.00000
   95 Torsion                  4     2    10    14          91.13865    0.11788
   96 Torsion                  4     8    16    12          19.79034   -0.33531
   97 Torsion                  4     8    16    14         -68.30951   -0.21626
   98 Torsion                  4     8    16    15         151.15598   -0.04713
   99 Torsion                  4    12    10     9         137.16612    0.04595
  100 Torsion                  4    12    10    14         -85.66775    0.09189
  101 Torsion                  4    12    16     8         -18.88347    0.39005
  102 Torsion                  4    12    16    14          91.13865    0.11788
  103 Torsion                  4    12    16    15        -148.19858   -0.06551
  104 Torsion                  5     6     2    10         175.42327    2.96356
  105 Torsion                  5     6    14    10        -175.42327   -2.96356
  106 Torsion                  5     6    14    13          53.21109   -3.25174
  107 Torsion                  5     6    14    16         -87.32341   -3.08261
  108 Torsion                  6     2     4     8           0.00000    0.00000
  109 Torsion                  6     2     4    12          87.81907   -0.01687
  110 Torsion                  6     2    10     9         109.94352    0.02175
  111 Torsion                  6     2    10    12        -110.02212    0.27217
  112 Torsion                  6     2    10    14         -18.88347    0.39005
  113 Torsion                  6    14    10     9        -109.94352   -0.02175
  114 Torsion                  6    14    10    12         110.02212   -0.27217
  115 Torsion                  6    14    16     8          -0.00000   -0.00000
  116 Torsion                  6    14    16    12         -87.81907    0.01687
  117 Torsion                  6    14    16    15         143.50818    0.01587
  118 Torsion                  7     8     4    12        -175.42327   -2.96356
  119 Torsion                  7     8    16    12         175.42327    2.96356
  120 Torsion                  7     8    16    14          87.32341    3.08261
  121 Torsion                  7     8    16    15         -53.21109    3.25174
  122 Torsion                  8     4     2    10         -87.81907    0.01687
  123 Torsion                  8     4    12    10         110.02212   -0.27217
  124 Torsion                  8     4    12    11        -109.94352   -0.02175
  125 Torsion                  8     4    12    16          18.88347   -0.39005
  126 Torsion                  8    16    12    10        -110.02212    0.27217
  127 Torsion                  8    16    12    11         109.94352    0.02175
  128 Torsion                  8    16    14    10          87.81907   -0.01687
  129 Torsion                  8    16    14    13        -143.50818   -0.01587
  130 Torsion                  9    10    12    11           0.00000    0.00000
  131 Torsion                  9    10    12    16        -137.16612   -0.04595
  132 Torsion                  9    10    14    13          19.37159    0.43380
  133 Torsion                  9    10    14    16         140.03435    0.25042
  134 Torsion                 10     2     4    12          -0.00000   -0.00000
  135 Torsion                 10     2     6    14          19.79034   -0.33531
  136 Torsion                 10    12    16    14           0.00000    0.00000
  137 Torsion                 10    12    16    15         120.66276   -0.18338
  138 Torsion                 10    14    16    12           0.00000    0.00000
  139 Torsion                 10    14    16    15        -128.67275   -0.00100
  140 Torsion                 11    12    10    14         137.16612    0.04595
  141 Torsion                 11    12    16    14        -140.03435   -0.25042
  142 Torsion                 11    12    16    15         -19.37159   -0.43380
  143 Torsion                 12     4     8    16         -19.79034    0.33531
  144 Torsion                 12    10    14    13        -120.66276    0.18338
  145 Torsion                 12    10    14    16          -0.00000   -0.00000
  146 Torsion                 12    16    14    13         128.67275    0.00100
  147 Torsion                 13    14    16    15           0.00000    0.00000
  148 Torsion                 14    10    12    16           0.00000    0.00000

 ==============================================================================
                                internuclear distances
 ------------------------------------------------------------------------------
       center one      |      center two      | atomic units |  angstroms
 ------------------------------------------------------------------------------
    2 C                |   1 H                |     2.05381  |     1.08683
    4 C                |   2 C                |     3.04353  |     1.61057
    4 C                |   3 H                |     2.05381  |     1.08683
    6 C                |   2 C                |     2.82860  |     1.49683
    6 C                |   5 H                |     2.04472  |     1.08202
    8 C                |   4 C                |     2.82860  |     1.49683
    8 C                |   7 H                |     2.04472  |     1.08202
   10 C                |   2 C                |     2.96728  |     1.57022
   10 C                |   9 H                |     2.05064  |     1.08515
   12 C                |   4 C                |     2.96728  |     1.57022
   12 C                |  10 C                |     2.91630  |     1.54324
   12 C                |  11 H                |     2.05064  |     1.08515
   14 C                |   6 C                |     2.82860  |     1.49683
   14 C                |  10 C                |     2.96728  |     1.57022
   14 C                |  13 H                |     2.05381  |     1.08683
   16 C                |   8 C                |     2.82860  |     1.49683
   16 C                |  12 C                |     2.96728  |     1.57022
   16 C                |  14 C                |     3.04353  |     1.61057
   16 C                |  15 H                |     2.05381  |     1.08683
 ------------------------------------------------------------------------------
                         number of included internuclear distances:         19
 ==============================================================================



 ==============================================================================
                                 internuclear angles
 ------------------------------------------------------------------------------
        center 1       |       center 2       |       center 3       |  degrees
 ------------------------------------------------------------------------------
    1 H                |   2 C                |   4 C                |   115.47
    1 H                |   2 C                |   6 C                |   122.36
    1 H                |   2 C                |  10 C                |   124.98
    4 C                |   2 C                |   6 C                |   109.97
    4 C                |   2 C                |  10 C                |    88.77
    6 C                |   2 C                |  10 C                |    88.37
    2 C                |   4 C                |   3 H                |   115.47
    2 C                |   4 C                |   8 C                |   109.97
    2 C                |   4 C                |  12 C                |    88.77
    3 H                |   4 C                |   8 C                |   122.36
    3 H                |   4 C                |  12 C                |   124.98
    8 C                |   4 C                |  12 C                |    88.37
    2 C                |   6 C                |   5 H                |   131.85
    2 C                |   6 C                |  14 C                |    90.97
    5 H                |   6 C                |  14 C                |   131.85
    4 C                |   8 C                |   7 H                |   131.85
    4 C                |   8 C                |  16 C                |    90.97
    7 H                |   8 C                |  16 C                |   131.85
    2 C                |  10 C                |   9 H                |   124.08
    2 C                |  10 C                |  12 C                |    91.23
    2 C                |  10 C                |  14 C                |    85.64
    9 H                |  10 C                |  12 C                |   128.51
    9 H                |  10 C                |  14 C                |   124.08
   12 C                |  10 C                |  14 C                |    91.23
    4 C                |  12 C                |  10 C                |    91.23
    4 C                |  12 C                |  11 H                |   124.08
    4 C                |  12 C                |  16 C                |    85.64
   10 C                |  12 C                |  11 H                |   128.51
   10 C                |  12 C                |  16 C                |    91.23
   11 H                |  12 C                |  16 C                |   124.08
    6 C                |  14 C                |  10 C                |    88.37
    6 C                |  14 C                |  13 H                |   122.36
    6 C                |  14 C                |  16 C                |   109.97
   10 C                |  14 C                |  13 H                |   124.98
   10 C                |  14 C                |  16 C                |    88.77
   13 H                |  14 C                |  16 C                |   115.47
    8 C                |  16 C                |  12 C                |    88.37
    8 C                |  16 C                |  14 C                |   109.97
    8 C                |  16 C                |  15 H                |   122.36
   12 C                |  16 C                |  14 C                |    88.77
   12 C                |  16 C                |  15 H                |   124.98
   14 C                |  16 C                |  15 H                |   115.47
 ------------------------------------------------------------------------------
                            number of included internuclear angles:         42
 ==============================================================================




 Task  times  cpu:    47379.9s     wall:    43105.4s
 Summary of allocated global arrays
-----------------------------------
  No active global arrays



                         GA Statistics for process    0
                         ------------------------------

       create   destroy   get      put      acc     scatter   gather  read&inc
calls: 2.37e+04 2.37e+04 1.69e+08 1.26e+07 8.51e+07 3368        0     1.29e+06 
number of processes/call 1.00e+00 1.00e+00 1.00e+00 0.00e+00 0.00e+00
bytes total:             2.03e+11 3.02e+11 1.78e+10 7.49e+04 0.00e+00 1.03e+07
bytes remote:            0.00e+00 0.00e+00 0.00e+00 0.00e+00 0.00e+00 0.00e+00
Max memory consumed for GA by this process: 209713000 bytes
MA_summarize_allocated_blocks: starting scan ...
MA_summarize_allocated_blocks: scan completed: 0 heap blocks, 0 stack blocks
MA usage statistics:

	allocation statistics:
					      heap	     stack
					      ----	     -----
	current number of blocks	         0	         0
	maximum number of blocks	        25	        48
	current total bytes		         0	         0
	maximum total bytes		    186992	 108907432
	maximum total K-bytes		       187	    108908
	maximum total M-bytes		         1	       109


                                NWChem Input Module
                                -------------------





                                     CITATION
                                     --------
                Please cite the following reference when publishing
                           results obtained with NWChem:

                 M. Valiev, E.J. Bylaska, N. Govind, K. Kowalski,
              T.P. Straatsma, H.J.J. van Dam, D. Wang, J. Nieplocha,
                        E. Apra, T.L. Windus, W.A. de Jong
                 "NWChem: a comprehensive and scalable open-source
                  solution for large scale molecular simulations"
                      Comput. Phys. Commun. 181, 1477 (2010)
                           doi:10.1016/j.cpc.2010.04.018

                                      AUTHORS
                                      -------
          E. Apra, E. J. Bylaska, W. A. de Jong, N. Govind, K. Kowalski,
       T. P. Straatsma, M. Valiev, H. J. J. van Dam, D. Wang, T. L. Windus,
        J. Hammond, J. Autschbach, K. Bhaskaran-Nair, J. Brabec, K. Lopata,
       S. A. Fischer, S. Krishnamoorthy, W. Ma, M. Klemm, O. Villa, Y. Chen,
    V. Anisimov, F. Aquino, S. Hirata, M. T. Hackler, T. Risthaus, M. Malagoli,
       A. Marenich, A. Otero-de-la-Roza, J. Mullin, P. Nichols, R. Peverati,
     J. Pittner, Y. Zhao, P.-D. Fan, A. Fonari, M. Williamson, R. J. Harrison,
       J. R. Rehr, M. Dupuis, D. Silverstein, D. M. A. Smith, J. Nieplocha,
        V. Tipparaju, M. Krishnan, B. E. Van Kuiken, A. Vazquez-Mayagoitia,
        L. Jensen, M. Swart, Q. Wu, T. Van Voorhis, A. A. Auer, M. Nooijen,
      L. D. Crosby, E. Brown, G. Cisneros, G. I. Fann, H. Fruchtl, J. Garza,
        K. Hirao, R. A. Kendall, J. A. Nichols, K. Tsemekhman, K. Wolinski,
     J. Anchell, D. E. Bernholdt, P. Borowski, T. Clark, D. Clerc, H. Dachsel,
   M. J. O. Deegan, K. Dyall, D. Elwood, E. Glendening, M. Gutowski, A. C. Hess,
         J. Jaffe, B. G. Johnson, J. Ju, R. Kobayashi, R. Kutteh, Z. Lin,
   R. Littlefield, X. Long, B. Meng, T. Nakajima, S. Niu, L. Pollack, M. Rosing,
   K. Glaesemann, G. Sandrone, M. Stave, H. Taylor, G. Thomas, J. H. van Lenthe,
                               A. T. Wong, Z. Zhang.

 Total times  cpu:    47380.0s     wall:    43105.5s
