 argument  1 = triplet.nw
                                         
                                         


              Northwest Computational Chemistry Package (NWChem) 6.6
              ------------------------------------------------------


                    Environmental Molecular Sciences Laboratory
                       Pacific Northwest National Laboratory
                                Richland, WA 99352

                              Copyright (c) 1994-2015
                       Pacific Northwest National Laboratory
                            Battelle Memorial Institute

             NWChem is an open-source computational chemistry package
                        distributed under the terms of the
                      Educational Community License (ECL) 2.0
             A copy of the license is included with this distribution
                              in the LICENSE.TXT file

                                  ACKNOWLEDGMENT
                                  --------------

            This software and its documentation were developed at the
            EMSL at Pacific Northwest National Laboratory, a multiprogram
            national laboratory, operated for the U.S. Department of Energy
            by Battelle under Contract Number DE-AC05-76RL01830. Support
            for this work was provided by the Department of Energy Office
            of Biological and Environmental Research, Office of Basic
            Energy Sciences, and the Office of Advanced Scientific Computing.


           Job information
           ---------------

    hostname        = konkov-work
    program         = nwchem
    date            = Mon Mar 13 15:29:19 2017

    compiled        = Mon_Feb_15_08:24:17_2016
    source          = /build/nwchem-MF0R1k/nwchem-6.6+r27746
    nwchem branch   = 6.6
    nwchem revision = 27746
    ga revision     = 10594
    input           = triplet.nw
    prefix          = triplet.
    data base       = ./triplet.db
    status          = startup
    nproc           =        1
    time left       =     -1s



           Memory information
           ------------------

    heap     =   13107200 doubles =    100.0 Mbytes
    stack    =   13107197 doubles =    100.0 Mbytes
    global   =   26214400 doubles =    200.0 Mbytes (distinct from heap & stack)
    total    =   52428797 doubles =    400.0 Mbytes
    verify   = yes
    hardfail = no 


           Directory information
           ---------------------

  0 permanent = .
  0 scratch   = .




                                NWChem Input Module
                                -------------------


               cubane T-biradical MP2/cc-pVTZ geometry optimization
               ----------------------------------------------------

 Scaling coordinates for geometry "geometry" by  1.889725989
 (inverse scale =  0.529177249)

 Turning off AUTOSYM since
 SYMMETRY directive was detected!


          ------
          auto-z
          ------


                             Geometry "geometry" -> ""
                             -------------------------

 Output coordinates in angstroms (scale by  1.889725989 to convert to a.u.)

  No.       Tag          Charge          X              Y              Z
 ---- ---------------- ---------- -------------- -------------- --------------
    1 H                    1.0000     2.04616432    -1.27355732     0.01546918
    2 C                    6.0000     1.06857807    -0.80411112    -0.05562220
    3 H                    1.0000     2.04616432     1.27355732     0.01546918
    4 C                    6.0000     1.06857807     0.80411112    -0.05562220
    5 H                    1.0000     0.00000000    -1.48912627    -2.04361597
    6 C                    6.0000     0.00000000    -1.32032316    -0.97453745
    7 H                    1.0000     0.00000000     1.48912627    -2.04361597
    8 C                    6.0000     0.00000000     1.32032316    -0.97453745
    9 H                    1.0000     0.00000000    -1.44688597     1.94724675
   10 C                    6.0000     0.00000000    -0.77332163     1.09668699
   11 H                    1.0000     0.00000000     1.44688597     1.94724675
   12 C                    6.0000     0.00000000     0.77332163     1.09668699
   13 H                    1.0000    -2.04616432    -1.27355732     0.01546918
   14 C                    6.0000    -1.06857807    -0.80411112    -0.05562220
   15 H                    1.0000    -2.04616432     1.27355732     0.01546918
   16 C                    6.0000    -1.06857807     0.80411112    -0.05562220

      Atomic Mass 
      ----------- 

      H                  1.007825
      C                 12.000000


 Effective nuclear repulsion energy (a.u.)     359.5926490269

            Nuclear Dipole moment (a.u.) 
            ----------------------------
        X                 Y               Z
 ---------------- ---------------- ----------------
     0.0000000000     0.0000000000    -0.0000000000

      Symmetry information
      --------------------

 Group name             C2v       
 Group number             16
 Group order               4
 No. of unique centers     6

      Symmetry unique atoms

     1    2    5    6    9   10



                                Z-matrix (autoz)
                                -------- 

 Units are Angstrom for bonds and degrees for angles

      Type          Name      I     J     K     L     M      Value
      ----------- --------  ----- ----- ----- ----- ----- ----------
    1 Stretch                  1     2                       1.08679
    2 Stretch                  2     4                       1.60822
    3 Stretch                  2     6                       1.50091
    4 Stretch                  2    10                       1.57182
    5 Stretch                  3     4                       1.08679
    6 Stretch                  4     8                       1.50091
    7 Stretch                  4    12                       1.57182
    8 Stretch                  5     6                       1.08232
    9 Stretch                  6    14                       1.50091
   10 Stretch                  7     8                       1.08232
   11 Stretch                  8    16                       1.50091
   12 Stretch                  9    10                       1.08496
   13 Stretch                 10    12                       1.54664
   14 Stretch                 10    14                       1.57182
   15 Stretch                 11    12                       1.08496
   16 Stretch                 12    16                       1.57182
   17 Stretch                 13    14                       1.08679
   18 Stretch                 14    16                       1.60822
   19 Stretch                 15    16                       1.08679
   20 Bend                     1     2     4               115.59185
   21 Bend                     1     2     6               122.13387
   22 Bend                     1     2    10               124.89186
   23 Bend                     2     4     3               115.59185
   24 Bend                     2     4     8               110.11662
   25 Bend                     2     4    12                88.87759
   26 Bend                     2     6     5               131.17693
   27 Bend                     2     6    14                90.78794
   28 Bend                     2    10     9               124.23297
   29 Bend                     2    10    12                91.12241
   30 Bend                     2    10    14                85.66137
   31 Bend                     3     4     8               122.13387
   32 Bend                     3     4    12               124.89186
   33 Bend                     4     2     6               110.11662
   34 Bend                     4     2    10                88.87759
   35 Bend                     4     8     7               131.17693
   36 Bend                     4     8    16                90.78794
   37 Bend                     4    12    10                91.12241
   38 Bend                     4    12    11               124.23297
   39 Bend                     4    12    16                85.66137
   40 Bend                     5     6    14               131.17693
   41 Bend                     6     2    10                88.37039
   42 Bend                     6    14    10                88.37039
   43 Bend                     6    14    13               122.13387
   44 Bend                     6    14    16               110.11662
   45 Bend                     7     8    16               131.17693
   46 Bend                     8     4    12                88.37039
   47 Bend                     8    16    12                88.37039
   48 Bend                     8    16    14               110.11662
   49 Bend                     8    16    15               122.13387
   50 Bend                     9    10    12               128.37595
   51 Bend                     9    10    14               124.23297
   52 Bend                    10    12    11               128.37595
   53 Bend                    10    12    16                91.12241
   54 Bend                    10    14    13               124.89186
   55 Bend                    10    14    16                88.87759
   56 Bend                    11    12    16               124.23297
   57 Bend                    12    10    14                91.12241
   58 Bend                    12    16    14                88.87759
   59 Bend                    12    16    15               124.89186
   60 Bend                    13    14    16               115.59185
   61 Bend                    14    16    15               115.59185
   62 Torsion                  1     2     4     3           0.00000
   63 Torsion                  1     2     4     8         143.46568
   64 Torsion                  1     2     4    12        -128.68157
   65 Torsion                  1     2     6     5         -56.37483
   66 Torsion                  1     2     6    14         151.14690
   67 Torsion                  1     2    10     9         -18.98400
   68 Torsion                  1     2    10    12         120.86821
   69 Torsion                  1     2    10    14        -148.09112
   70 Torsion                  2     4     8     7         -84.27710
   71 Torsion                  2     4     8    16          68.20116
   72 Torsion                  2     4    12    10           0.00000
   73 Torsion                  2     4    12    11         139.85221
   74 Torsion                  2     4    12    16         -91.04067
   75 Torsion                  2     6    14    10         -20.00576
   76 Torsion                  2     6    14    13        -151.14690
   77 Torsion                  2     6    14    16          68.20116
   78 Torsion                  2    10    12     4           0.00000
   79 Torsion                  2    10    12    11        -137.15912
   80 Torsion                  2    10    12    16          85.68175
   81 Torsion                  2    10    14     6          19.12249
   82 Torsion                  2    10    14    13         148.09112
   83 Torsion                  2    10    14    16         -91.04067
   84 Torsion                  3     4     2     6        -143.46568
   85 Torsion                  3     4     2    10         128.68157
   86 Torsion                  3     4     8     7          56.37483
   87 Torsion                  3     4     8    16        -151.14690
   88 Torsion                  3     4    12    10        -120.86821
   89 Torsion                  3     4    12    11          18.98400
   90 Torsion                  3     4    12    16         148.09112
   91 Torsion                  4     2     6     5          84.27710
   92 Torsion                  4     2     6    14         -68.20116
   93 Torsion                  4     2    10     9        -139.85221
   94 Torsion                  4     2    10    12           0.00000
   95 Torsion                  4     2    10    14          91.04067
   96 Torsion                  4     8    16    12          20.00576
   97 Torsion                  4     8    16    14         -68.20116
   98 Torsion                  4     8    16    15         151.14690
   99 Torsion                  4    12    10     9         137.15912
  100 Torsion                  4    12    10    14         -85.68175
  101 Torsion                  4    12    16     8         -19.12249
  102 Torsion                  4    12    16    14          91.04067
  103 Torsion                  4    12    16    15        -148.09112
  104 Torsion                  5     6     2    10         172.48402
  105 Torsion                  5     6    14    10        -172.48402
  106 Torsion                  5     6    14    13          56.37483
  107 Torsion                  5     6    14    16         -84.27710
  108 Torsion                  6     2     4     8           0.00000
  109 Torsion                  6     2     4    12          87.85275
  110 Torsion                  6     2    10     9         109.98463
  111 Torsion                  6     2    10    12        -110.16316
  112 Torsion                  6     2    10    14         -19.12249
  113 Torsion                  6    14    10     9        -109.98463
  114 Torsion                  6    14    10    12         110.16316
  115 Torsion                  6    14    16     8           0.00000
  116 Torsion                  6    14    16    12         -87.85275
  117 Torsion                  6    14    16    15         143.46568
  118 Torsion                  7     8     4    12        -172.48402
  119 Torsion                  7     8    16    12         172.48402
  120 Torsion                  7     8    16    14          84.27710
  121 Torsion                  7     8    16    15         -56.37483
  122 Torsion                  8     4     2    10         -87.85275
  123 Torsion                  8     4    12    10         110.16316
  124 Torsion                  8     4    12    11        -109.98463
  125 Torsion                  8     4    12    16          19.12249
  126 Torsion                  8    16    12    10        -110.16316
  127 Torsion                  8    16    12    11         109.98463
  128 Torsion                  8    16    14    10          87.85275
  129 Torsion                  8    16    14    13        -143.46568
  130 Torsion                  9    10    12    11           0.00000
  131 Torsion                  9    10    12    16        -137.15912
  132 Torsion                  9    10    14    13          18.98400
  133 Torsion                  9    10    14    16         139.85221
  134 Torsion                 10     2     4    12           0.00000
  135 Torsion                 10     2     6    14          20.00576
  136 Torsion                 10    12    16    14           0.00000
  137 Torsion                 10    12    16    15         120.86821
  138 Torsion                 10    14    16    12           0.00000
  139 Torsion                 10    14    16    15        -128.68157
  140 Torsion                 11    12    10    14         137.15912
  141 Torsion                 11    12    16    14        -139.85221
  142 Torsion                 11    12    16    15         -18.98400
  143 Torsion                 12     4     8    16         -20.00576
  144 Torsion                 12    10    14    13        -120.86821
  145 Torsion                 12    10    14    16          -0.00000
  146 Torsion                 12    16    14    13         128.68157
  147 Torsion                 13    14    16    15           0.00000
  148 Torsion                 14    10    12    16           0.00000


            XYZ format geometry
            -------------------
    16
 geometry
 H                     2.04616432    -1.27355732     0.01546918
 C                     1.06857807    -0.80411112    -0.05562220
 H                     2.04616432     1.27355732     0.01546918
 C                     1.06857807     0.80411112    -0.05562220
 H                     0.00000000    -1.48912627    -2.04361597
 C                     0.00000000    -1.32032316    -0.97453745
 H                     0.00000000     1.48912627    -2.04361597
 C                     0.00000000     1.32032316    -0.97453745
 H                     0.00000000    -1.44688597     1.94724675
 C                     0.00000000    -0.77332163     1.09668699
 H                     0.00000000     1.44688597     1.94724675
 C                     0.00000000     0.77332163     1.09668699
 H                    -2.04616432    -1.27355732     0.01546918
 C                    -1.06857807    -0.80411112    -0.05562220
 H                    -2.04616432     1.27355732     0.01546918
 C                    -1.06857807     0.80411112    -0.05562220

 ==============================================================================
                                internuclear distances
 ------------------------------------------------------------------------------
       center one      |      center two      | atomic units |  angstroms
 ------------------------------------------------------------------------------
    2 C                |   1 H                |     2.05373  |     1.08679
    4 C                |   2 C                |     3.03910  |     1.60822
    4 C                |   3 H                |     2.05373  |     1.08679
    6 C                |   2 C                |     2.83631  |     1.50091
    6 C                |   5 H                |     2.04529  |     1.08232
    8 C                |   4 C                |     2.83631  |     1.50091
    8 C                |   7 H                |     2.04529  |     1.08232
   10 C                |   2 C                |     2.97031  |     1.57182
   10 C                |   9 H                |     2.05028  |     1.08496
   12 C                |   4 C                |     2.97031  |     1.57182
   12 C                |  10 C                |     2.92273  |     1.54664
   12 C                |  11 H                |     2.05028  |     1.08496
   14 C                |   6 C                |     2.83631  |     1.50091
   14 C                |  10 C                |     2.97031  |     1.57182
   14 C                |  13 H                |     2.05373  |     1.08679
   16 C                |   8 C                |     2.83631  |     1.50091
   16 C                |  12 C                |     2.97031  |     1.57182
   16 C                |  14 C                |     3.03910  |     1.60822
   16 C                |  15 H                |     2.05373  |     1.08679
 ------------------------------------------------------------------------------
                         number of included internuclear distances:         19
 ==============================================================================



 ==============================================================================
                                 internuclear angles
 ------------------------------------------------------------------------------
        center 1       |       center 2       |       center 3       |  degrees
 ------------------------------------------------------------------------------
    1 H                |   2 C                |   4 C                |   115.59
    1 H                |   2 C                |   6 C                |   122.13
    1 H                |   2 C                |  10 C                |   124.89
    4 C                |   2 C                |   6 C                |   110.12
    4 C                |   2 C                |  10 C                |    88.88
    6 C                |   2 C                |  10 C                |    88.37
    2 C                |   4 C                |   3 H                |   115.59
    2 C                |   4 C                |   8 C                |   110.12
    2 C                |   4 C                |  12 C                |    88.88
    3 H                |   4 C                |   8 C                |   122.13
    3 H                |   4 C                |  12 C                |   124.89
    8 C                |   4 C                |  12 C                |    88.37
    2 C                |   6 C                |   5 H                |   131.18
    2 C                |   6 C                |  14 C                |    90.79
    5 H                |   6 C                |  14 C                |   131.18
    4 C                |   8 C                |   7 H                |   131.18
    4 C                |   8 C                |  16 C                |    90.79
    7 H                |   8 C                |  16 C                |   131.18
    2 C                |  10 C                |   9 H                |   124.23
    2 C                |  10 C                |  12 C                |    91.12
    2 C                |  10 C                |  14 C                |    85.66
    9 H                |  10 C                |  12 C                |   128.38
    9 H                |  10 C                |  14 C                |   124.23
   12 C                |  10 C                |  14 C                |    91.12
    4 C                |  12 C                |  10 C                |    91.12
    4 C                |  12 C                |  11 H                |   124.23
    4 C                |  12 C                |  16 C                |    85.66
   10 C                |  12 C                |  11 H                |   128.38
   10 C                |  12 C                |  16 C                |    91.12
   11 H                |  12 C                |  16 C                |   124.23
    6 C                |  14 C                |  10 C                |    88.37
    6 C                |  14 C                |  13 H                |   122.13
    6 C                |  14 C                |  16 C                |   110.12
   10 C                |  14 C                |  13 H                |   124.89
   10 C                |  14 C                |  16 C                |    88.88
   13 H                |  14 C                |  16 C                |   115.59
    8 C                |  16 C                |  12 C                |    88.37
    8 C                |  16 C                |  14 C                |   110.12
    8 C                |  16 C                |  15 H                |   122.13
   12 C                |  16 C                |  14 C                |    88.88
   12 C                |  16 C                |  15 H                |   124.89
   14 C                |  16 C                |  15 H                |   115.59
 ------------------------------------------------------------------------------
                            number of included internuclear angles:         42
 ==============================================================================



  library name resolved from: environment
  library file name is: </home/vladimir/bin/nwchem-6.6/src/basis/libraries/>
  
                      Basis "ao basis" -> "" (spherical)
                      -----
  H (Hydrogen)
  ------------
            Exponent  Coefficients 
       -------------- ---------------------------------------------------------
  1 S  3.38700000E+01  0.006068
  1 S  5.09500000E+00  0.045308
  1 S  1.15900000E+00  0.202822

  2 S  3.25800000E-01  1.000000

  3 S  1.02700000E-01  1.000000

  4 P  1.40700000E+00  1.000000

  5 P  3.88000000E-01  1.000000

  6 D  1.05700000E+00  1.000000

  C (Carbon)
  ----------
            Exponent  Coefficients 
       -------------- ---------------------------------------------------------
  1 S  8.23600000E+03  0.000531
  1 S  1.23500000E+03  0.004108
  1 S  2.80800000E+02  0.021087
  1 S  7.92700000E+01  0.081853
  1 S  2.55900000E+01  0.234817
  1 S  8.99700000E+00  0.434401
  1 S  3.31900000E+00  0.346129
  1 S  3.64300000E-01 -0.008983

  2 S  8.23600000E+03 -0.000113
  2 S  1.23500000E+03 -0.000878
  2 S  2.80800000E+02 -0.004540
  2 S  7.92700000E+01 -0.018133
  2 S  2.55900000E+01 -0.055760
  2 S  8.99700000E+00 -0.126895
  2 S  3.31900000E+00 -0.170352
  2 S  3.64300000E-01  0.598684

  3 S  9.05900000E-01  1.000000

  4 S  1.28500000E-01  1.000000

  5 P  1.87100000E+01  0.014031
  5 P  4.13300000E+00  0.086866
  5 P  1.20000000E+00  0.290216

  6 P  3.82700000E-01  1.000000

  7 P  1.20900000E-01  1.000000

  8 D  1.09700000E+00  1.000000

  9 D  3.18000000E-01  1.000000

 10 F  7.61000000E-01  1.000000



 Summary of "ao basis" -> "" (spherical)
 ------------------------------------------------------------------------------
       Tag                 Description            Shells   Functions and Types
 ---------------- ------------------------------  ------  ---------------------
 H                          cc-pVTZ                  6       14   3s2p1d
 C                          cc-pVTZ                 10       30   4s3p2d1f




                           NWChem Geometry Optimization
                           ----------------------------




               cubane T-biradical MP2/cc-pVTZ geometry optimization


 maximum gradient threshold         (gmax) =   0.000450
 rms gradient threshold             (grms) =   0.000300
 maximum cartesian step threshold   (xmax) =   0.001800
 rms cartesian step threshold       (xrms) =   0.001200
 fixed trust radius                (trust) =   0.300000
 maximum step size to saddle      (sadstp) =   0.100000
 energy precision                  (eprec) =   1.0D-07
 maximum number of steps          (nptopt) =   20
 initial hessian option           (inhess) =    0
 line search option               (linopt) =    1
 hessian update option            (modupd) =    1
 saddle point option              (modsad) =    0
 initial eigen-mode to follow     (moddir) =    0
 initial variable to follow       (vardir) =    0
 follow first negative mode     (firstneg) =    T
 apply conjugacy                    (opcg) =    F
 source of zmatrix                         =   autoz   


          -------------------
          Energy Minimization
          -------------------


 Names of Z-matrix variables 
    1              2              3              4              5         
    6              7              8              9             10         
   11             12             13             14             15         
   16             17             18             19             20         
   21             22             23             24             25         
   26             27             28             29             30         
   31             32             33             34             35         
   36             37             38             39             40         
   41             42             43             44             45         
   46             47             48             49             50         
   51             52             53             54             55         
   56             57             58             59             60         
   61             62             63             64             65         
   66             67             68             69             70         
   71             72             73             74             75         
   76             77             78             79             80         
   81             82             83             84             85         
   86             87             88             89             90         
   91             92             93             94             95         
   96             97             98             99            100         
  101            102            103            104            105         
  106            107            108            109            110         
  111            112            113            114            115         
  116            117            118            119            120         
  121            122            123            124            125         
  126            127            128            129            130         
  131            132            133            134            135         
  136            137            138            139            140         
  141            142            143            144            145         
  146            147            148         

 Variables with the same non-blank name are constrained to be equal


 Using diagonal initial Hessian 
 Scaling for Hessian diagonals: bonds = 1.00  angles = 0.25  torsions = 0.10

          --------
          Step   0
          --------


                         Geometry "geometry" -> "geometry"
                         ---------------------------------

 Output coordinates in angstroms (scale by  1.889725989 to convert to a.u.)

  No.       Tag          Charge          X              Y              Z
 ---- ---------------- ---------- -------------- -------------- --------------
    1 H                    1.0000     2.04616432    -1.27355732     0.01546918
    2 C                    6.0000     1.06857807    -0.80411112    -0.05562220
    3 H                    1.0000     2.04616432     1.27355732     0.01546918
    4 C                    6.0000     1.06857807     0.80411112    -0.05562220
    5 H                    1.0000     0.00000000    -1.48912627    -2.04361597
    6 C                    6.0000     0.00000000    -1.32032316    -0.97453745
    7 H                    1.0000     0.00000000     1.48912627    -2.04361597
    8 C                    6.0000     0.00000000     1.32032316    -0.97453745
    9 H                    1.0000     0.00000000    -1.44688597     1.94724675
   10 C                    6.0000     0.00000000    -0.77332163     1.09668699
   11 H                    1.0000     0.00000000     1.44688597     1.94724675
   12 C                    6.0000     0.00000000     0.77332163     1.09668699
   13 H                    1.0000    -2.04616432    -1.27355732     0.01546918
   14 C                    6.0000    -1.06857807    -0.80411112    -0.05562220
   15 H                    1.0000    -2.04616432     1.27355732     0.01546918
   16 C                    6.0000    -1.06857807     0.80411112    -0.05562220

      Atomic Mass 
      ----------- 

      H                  1.007825
      C                 12.000000


 Effective nuclear repulsion energy (a.u.)     359.5926490269

            Nuclear Dipole moment (a.u.) 
            ----------------------------
        X                 Y               Z
 ---------------- ---------------- ----------------
     0.0000000000     0.0000000000    -0.0000000000

      Symmetry information
      --------------------

 Group name             C2v       
 Group number             16
 Group order               4
 No. of unique centers     6

      Symmetry unique atoms

     1    2    5    6    9   10

                                 NWChem SCF Module
                                 -----------------


               cubane T-biradical MP2/cc-pVTZ geometry optimization



  ao basis        = "ao basis"
  functions       =   352
  atoms           =    16
  alpha electrons =    29
  beta  electrons =    27
  charge          =   0.00
  wavefunction    = UHF 
  input vectors   = atomic
  output vectors  = ./triplet.movecs
  use symmetry    = T
  symmetry adapt  = T


 Summary of "ao basis" -> "ao basis" (spherical)
 ------------------------------------------------------------------------------
       Tag                 Description            Shells   Functions and Types
 ---------------- ------------------------------  ------  ---------------------
 H                          cc-pVTZ                  6       14   3s2p1d
 C                          cc-pVTZ                 10       30   4s3p2d1f


      Symmetry analysis of basis
      --------------------------

        a1        104
        a2         72
        b1         72
        b2        104


 Forming initial guess at       0.3s


      Superposition of Atomic Density Guess
      -------------------------------------

 Sum of atomic energies:        -305.36244765

      Non-variational initial energy
      ------------------------------

 Total energy =    -311.516437
 1-e energy   =   -1122.112230
 2-e energy   =     451.003144
 HOMO         =      -0.177366
 LUMO         =      -0.123041


   Symmetry analysis of molecular orbitals - initial alpha
   -------------------------------------------------------

  Numbering of irreducible representations: 

     1 a1          2 a2          3 b1          4 b2      

  Orbital symmetries:

     1 a1          2 b2          3 b1          4 a1          5 a2      
     6 b2          7 a1          8 b2          9 a1         10 b2      
    11 b1         12 a1         13 b2         14 a2         15 a1      
    16 a1         17 b2         18 a1         19 b2         20 b1      
    21 a1         22 b1         23 b1         24 a2         25 a1      
    26 b2         27 a2         28 b2         29 a1         30 a1      
    31 b1         32 a1         33 b2         34 a1         35 a2      
    36 b1         37 b2         38 a1         39 b2      


   Symmetry analysis of molecular orbitals - initial beta
   ------------------------------------------------------

  Numbering of irreducible representations: 

     1 a1          2 a2          3 b1          4 b2      

  Orbital symmetries:

     1 a1          2 b2          3 b1          4 a1          5 a2      
     6 b2          7 a1          8 b2          9 a1         10 b2      
    11 b1         12 a1         13 b2         14 a2         15 a1      
    16 a1         17 b2         18 a1         19 b2         20 b1      
    21 a1         22 b1         23 b1         24 a2         25 a1      
    26 b2         27 a2         28 b2         29 a1         30 a1      
    31 b1         32 a1         33 b2         34 a1         35 a2      
    36 b1         37 b2         38 a1         39 b2      


 Starting SCF solution at       3.5s



 ----------------------------------------------
         Quadratically convergent UHF

 Convergence threshold     :          1.000E-06
 Maximum no. of iterations :           30
 Integral*density screening:          1.000E-08
 ----------------------------------------------


              iter       energy          gnorm     gmax       time
             ----- ------------------- --------- --------- --------
                 1     -307.3291047090  7.23D-01  1.13D-01     28.5
                 2     -307.4469202617  2.23D-01  3.36D-02     77.6
                 3     -307.4564694431  1.44D-02  1.78D-03    166.2
                 4     -307.4565508940  1.58D-04  2.34D-05    325.0
                 5     -307.4565509084  2.78D-06  4.06D-07    571.2
                 6     -307.4565509085  2.40D-08  3.28D-09    643.8


       Final UHF  results 
       ------------------ 

         Total SCF energy =   -307.456550908462
      One electron energy =  -1128.221869950142
      Two electron energy =    461.172670014784
 Nuclear repulsion energy =    359.592649026895

                       Sz =      1.0000
                 Sz(Sz+1) =      2.0000
                      S^2 =      2.0233

        Time for solution =    640.2s



       Symmetry analysis of molecular orbitals - alpha
       -----------------------------------------------

  Numbering of irreducible representations: 

     1 a1          2 a2          3 b1          4 b2      

  Orbital symmetries:

     1 a1          2 b2          3 b1          4 a2          5 a1      
     6 b2          7 a1          8 b2          9 a1         10 b2      
    11 b1         12 a1         13 b2         14 a2         15 a1      
    16 a1         17 b2         18 a1         19 b2         20 b1      
    21 a1         22 b1         23 a2         24 b1         25 b2      
    26 a1         27 a2         28 b2         29 a1         30 a1      
    31 a1         32 b1         33 b2         34 a1         35 a2      
    36 b2         37 b2         38 a1         39 b1      


       Symmetry analysis of molecular orbitals - beta
       ----------------------------------------------

  Numbering of irreducible representations: 

     1 a1          2 a2          3 b1          4 b2      

  Orbital symmetries:

     1 a1          2 b1          3 b2          4 a2          5 a1      
     6 b2          7 b2          8 a1          9 a1         10 b2      
    11 b1         12 a1         13 a2         14 b2         15 a1      
    16 a1         17 b2         18 a1         19 b2         20 b1      
    21 b1         22 a1         23 a2         24 b1         25 b2      
    26 a1         27 a2         28 b2         29 a1         30 a1      
    31 b1         32 a1         33 b2         34 a1         35 a2      
    36 b2         37 b2         38 a1         39 b1      

          Final alpha eigenvalues
          -----------------------

              1      
    1  -11.2304
    2  -11.2301
    3  -11.2301
    4  -11.2296
    5  -11.2293
    6  -11.2291
    7  -11.2267
    8  -11.2262
    9   -1.2333
   10   -1.0619
   11   -0.9676
   12   -0.9541
   13   -0.8104
   14   -0.7904
   15   -0.7731
   16   -0.7096
   17   -0.6580
   18   -0.6377
   19   -0.6165
   20   -0.5779
   21   -0.5517
   22   -0.5304
   23   -0.4535
   24   -0.4412
   25   -0.4144
   26   -0.4140
   27   -0.3816
   28   -0.3694
   29   -0.3025
   30    0.1466
   31    0.1591
   32    0.1631
   33    0.1808
   34    0.1917
   35    0.1996
   36    0.2058
   37    0.2287
   38    0.2327
   39    0.2420

          Final beta eigenvalues
          ----------------------

              1      
    1  -11.2307
    2  -11.2307
    3  -11.2303
    4  -11.2302
    5  -11.2256
    6  -11.2250
    7  -11.2057
    8  -11.2057
    9   -1.2155
   10   -1.0217
   11   -0.9602
   12   -0.9147
   13   -0.7875
   14   -0.7720
   15   -0.7382
   16   -0.6980
   17   -0.6442
   18   -0.6107
   19   -0.6079
   20   -0.5726
   21   -0.5212
   22   -0.4967
   23   -0.4386
   24   -0.4237
   25   -0.4056
   26   -0.4030
   27   -0.3802
   28    0.1137
   29    0.1307
   30    0.1525
   31    0.1641
   32    0.1726
   33    0.1904
   34    0.1958
   35    0.2016
   36    0.2103
   37    0.2329
   38    0.2383
   39    0.2431

                    UHF Final Alpha Molecular Orbital Analysis
                    ------------------------------------------

 Vector    9  Occ=1.000000D+00  E=-1.233346D+00  Symmetry=a1
              MO Center= -1.4D-16,  5.2D-17,  1.1D-01, r^2= 1.8D+00
   Bfn.  Coefficient  Atom+Function         Bfn.  Coefficient  Atom+Function  
  ----- ------------  ---------------      ----- ------------  ---------------
   192      0.181208  10 C  s               236      0.181208  12 C  s         
    16      0.169527   2 C  s                60      0.169527   4 C  s         
   280      0.169527  14 C  s               324      0.169527  16 C  s         

 Vector   10  Occ=1.000000D+00  E=-1.061851D+00  Symmetry=b2
              MO Center= -3.1D-15,  7.9D-16, -2.5D-01, r^2= 2.6D+00
   Bfn.  Coefficient  Atom+Function         Bfn.  Coefficient  Atom+Function  
  ----- ------------  ---------------      ----- ------------  ---------------
   104      0.242869   6 C  s               148     -0.242869   8 C  s         
    16      0.155215   2 C  s                60     -0.155215   4 C  s         
   280      0.155215  14 C  s               324     -0.155215  16 C  s         

 Vector   11  Occ=1.000000D+00  E=-9.675889D-01  Symmetry=b1
              MO Center= -2.2D-16,  8.7D-17,  2.2D-04, r^2= 2.8D+00
   Bfn.  Coefficient  Atom+Function         Bfn.  Coefficient  Atom+Function  
  ----- ------------  ---------------      ----- ------------  ---------------
    16      0.238542   2 C  s                60      0.238542   4 C  s         
   280     -0.238542  14 C  s               324     -0.238542  16 C  s         

 Vector   12  Occ=1.000000D+00  E=-9.540628D-01  Symmetry=a1
              MO Center=  0.0D+00,  4.4D-16,  1.2D-02, r^2= 3.0D+00
   Bfn.  Coefficient  Atom+Function         Bfn.  Coefficient  Atom+Function  
  ----- ------------  ---------------      ----- ------------  ---------------
   104      0.239309   6 C  s               148      0.239309   8 C  s         
   192     -0.233653  10 C  s               236     -0.233653  12 C  s         

 Vector   13  Occ=1.000000D+00  E=-8.104260D-01  Symmetry=b2
              MO Center=  7.2D-15, -3.1D-15,  5.6D-03, r^2= 4.1D+00
   Bfn.  Coefficient  Atom+Function         Bfn.  Coefficient  Atom+Function  
  ----- ------------  ---------------      ----- ------------  ---------------
   192     -0.225848  10 C  s               236      0.225848  12 C  s         
   104      0.219405   6 C  s               148     -0.219405   8 C  s         
   194     -0.170282  10 C  s               238      0.170282  12 C  s         
   106      0.159461   6 C  s               150     -0.159461   8 C  s         

 Vector   14  Occ=1.000000D+00  E=-7.903667D-01  Symmetry=a2
              MO Center=  1.6D-14,  1.8D-14, -1.0D-01, r^2= 3.9D+00
   Bfn.  Coefficient  Atom+Function         Bfn.  Coefficient  Atom+Function  
  ----- ------------  ---------------      ----- ------------  ---------------
    16      0.214119   2 C  s                60     -0.214119   4 C  s         
   280     -0.214119  14 C  s               324      0.214119  16 C  s         
    18      0.150182   2 C  s                62     -0.150182   4 C  s         
   282     -0.150182  14 C  s               326      0.150182  16 C  s         

 Vector   15  Occ=1.000000D+00  E=-7.730667D-01  Symmetry=a1
              MO Center= -9.2D-15, -1.1D-14, -3.1D-02, r^2= 4.1D+00
   Bfn.  Coefficient  Atom+Function         Bfn.  Coefficient  Atom+Function  
  ----- ------------  ---------------      ----- ------------  ---------------
   104      0.170406   6 C  s               148      0.170406   8 C  s         

 Vector   16  Occ=1.000000D+00  E=-7.096307D-01  Symmetry=a1
              MO Center=  4.1D-15,  2.3D-14,  2.5D-01, r^2= 4.2D+00
   Bfn.  Coefficient  Atom+Function         Bfn.  Coefficient  Atom+Function  
  ----- ------------  ---------------      ----- ------------  ---------------
    22      0.104005   2 C  px               66      0.104005   4 C  px        
   286     -0.104005  14 C  px              330     -0.104005  16 C  px        
     2      0.094055   1 H  s                46      0.094055   3 H  s         
   178      0.094237   9 H  s               200      0.094135  10 C  pz        
   222      0.094237  11 H  s               244      0.094135  12 C  pz        

 Vector   17  Occ=1.000000D+00  E=-6.579860D-01  Symmetry=b2
              MO Center=  4.2D-15, -1.2D-14,  1.6D-01, r^2= 5.0D+00
   Bfn.  Coefficient  Atom+Function         Bfn.  Coefficient  Atom+Function  
  ----- ------------  ---------------      ----- ------------  ---------------
   192      0.144444  10 C  s               236     -0.144444  12 C  s         

 Vector   18  Occ=1.000000D+00  E=-6.376946D-01  Symmetry=a1
              MO Center=  1.4D-17,  5.5D-16, -4.2D-01, r^2= 3.3D+00
   Bfn.  Coefficient  Atom+Function         Bfn.  Coefficient  Atom+Function  
  ----- ------------  ---------------      ----- ------------  ---------------
   112      0.170486   6 C  pz              156      0.170486   8 C  pz        

 Vector   19  Occ=1.000000D+00  E=-6.164623D-01  Symmetry=b2
              MO Center=  2.1D-14, -9.2D-15, -1.1D-01, r^2= 4.4D+00
   Bfn.  Coefficient  Atom+Function         Bfn.  Coefficient  Atom+Function  
  ----- ------------  ---------------      ----- ------------  ---------------
    22      0.125264   2 C  px               66     -0.125264   4 C  px        
   286     -0.125264  14 C  px              330      0.125264  16 C  px        
     2      0.119508   1 H  s                46     -0.119508   3 H  s         
   266      0.119508  13 H  s               310     -0.119508  15 H  s         

 Vector   20  Occ=1.000000D+00  E=-5.779199D-01  Symmetry=b1
              MO Center=  2.8D-15,  3.3D-16,  9.2D-02, r^2= 3.1D+00
   Bfn.  Coefficient  Atom+Function         Bfn.  Coefficient  Atom+Function  
  ----- ------------  ---------------      ----- ------------  ---------------
   198      0.145795  10 C  px              242      0.145795  12 C  px        

 Vector   21  Occ=1.000000D+00  E=-5.517207D-01  Symmetry=a1
              MO Center=  4.5D-14,  1.1D-14,  2.3D-01, r^2= 3.8D+00
   Bfn.  Coefficient  Atom+Function         Bfn.  Coefficient  Atom+Function  
  ----- ------------  ---------------      ----- ------------  ---------------
   111      0.163860   6 C  py              155     -0.163860   8 C  py        

 Vector   22  Occ=1.000000D+00  E=-5.304259D-01  Symmetry=b1
              MO Center= -1.1D-14,  6.8D-15, -2.4D-01, r^2= 3.7D+00
   Bfn.  Coefficient  Atom+Function         Bfn.  Coefficient  Atom+Function  
  ----- ------------  ---------------      ----- ------------  ---------------
   110      0.147987   6 C  px              154      0.147987   8 C  px        

 Vector   23  Occ=1.000000D+00  E=-4.534602D-01  Symmetry=a2
              MO Center=  6.7D-16, -2.6D-14, -4.0D-01, r^2= 3.5D+00
   Bfn.  Coefficient  Atom+Function         Bfn.  Coefficient  Atom+Function  
  ----- ------------  ---------------      ----- ------------  ---------------
   110      0.211904   6 C  px              154     -0.211904   8 C  px        
   107      0.158565   6 C  px              151     -0.158565   8 C  px        

 Vector   24  Occ=1.000000D+00  E=-4.411597D-01  Symmetry=b1
              MO Center=  3.1D-14, -2.1D-15,  6.4D-02, r^2= 2.8D+00
   Bfn.  Coefficient  Atom+Function         Bfn.  Coefficient  Atom+Function  
  ----- ------------  ---------------      ----- ------------  ---------------
    23      0.175944   2 C  py               67     -0.175944   4 C  py        
   287     -0.175944  14 C  py              331      0.175944  16 C  py        

 Vector   25  Occ=1.000000D+00  E=-4.143506D-01  Symmetry=b2
              MO Center= -9.5D-15, -2.6D-15,  1.8D-01, r^2= 3.6D+00
   Bfn.  Coefficient  Atom+Function         Bfn.  Coefficient  Atom+Function  
  ----- ------------  ---------------      ----- ------------  ---------------
   194      0.200524  10 C  s               238     -0.200524  12 C  s         
   200     -0.177897  10 C  pz              244      0.177897  12 C  pz        
   203     -0.162051  10 C  pz              247      0.162051  12 C  pz        

 Vector   26  Occ=1.000000D+00  E=-4.139957D-01  Symmetry=a1
              MO Center= -2.8D-17,  1.4D-15,  4.7D-01, r^2= 3.0D+00
   Bfn.  Coefficient  Atom+Function         Bfn.  Coefficient  Atom+Function  
  ----- ------------  ---------------      ----- ------------  ---------------
   199      0.230075  10 C  py              243     -0.230075  12 C  py        
   196      0.168888  10 C  py              240     -0.168888  12 C  py        

 Vector   27  Occ=1.000000D+00  E=-3.816000D-01  Symmetry=a2
              MO Center= -8.6D-14, -1.0D-14,  4.6D-01, r^2= 2.9D+00
   Bfn.  Coefficient  Atom+Function         Bfn.  Coefficient  Atom+Function  
  ----- ------------  ---------------      ----- ------------  ---------------
   198      0.216519  10 C  px              242     -0.216519  12 C  px        
   195      0.156408  10 C  px              239     -0.156408  12 C  px        

 Vector   28  Occ=1.000000D+00  E=-3.693815D-01  Symmetry=b2
              MO Center=  4.1D-15, -5.3D-15, -8.7D-01, r^2= 3.4D+00
   Bfn.  Coefficient  Atom+Function         Bfn.  Coefficient  Atom+Function  
  ----- ------------  ---------------      ----- ------------  ---------------
   111      0.316206   6 C  py              155      0.316206   8 C  py        
   114      0.280844   6 C  py              158      0.280844   8 C  py        
   108      0.218604   6 C  py              152      0.218604   8 C  py        

 Vector   29  Occ=1.000000D+00  E=-3.025377D-01  Symmetry=a1
              MO Center= -1.3D-14, -3.1D-15, -5.3D-01, r^2= 3.7D+00
   Bfn.  Coefficient  Atom+Function         Bfn.  Coefficient  Atom+Function  
  ----- ------------  ---------------      ----- ------------  ---------------
   114      0.285722   6 C  py              158     -0.285722   8 C  py        
   111      0.249331   6 C  py              155     -0.249331   8 C  py        
   108      0.171541   6 C  py              152     -0.171541   8 C  py        

 Vector   30  Occ=0.000000D+00  E= 1.465937D-01  Symmetry=a1
              MO Center=  5.6D-16, -4.1D-17,  3.0D-01, r^2= 1.2D+01
   Bfn.  Coefficient  Atom+Function         Bfn.  Coefficient  Atom+Function  
  ----- ------------  ---------------      ----- ------------  ---------------
     3      1.006635   1 H  s                47      1.006635   3 H  s         
   179      1.009659   9 H  s               223      1.009659  11 H  s         
   267      1.006635  13 H  s               311      1.006635  15 H  s         
    18     -0.922505   2 C  s                62     -0.922505   4 C  s         
   282     -0.922505  14 C  s               326     -0.922505  16 C  s         

 Vector   31  Occ=0.000000D+00  E= 1.591384D-01  Symmetry=a1
              MO Center=  2.8D-16,  3.4D-16, -9.2D-01, r^2= 1.0D+01
   Bfn.  Coefficient  Atom+Function         Bfn.  Coefficient  Atom+Function  
  ----- ------------  ---------------      ----- ------------  ---------------
   194      1.587831  10 C  s               238      1.587831  12 C  s         
    91      1.480892   5 H  s               135      1.480892   7 H  s         
   106     -1.423128   6 C  s               150     -1.423128   8 C  s         
   179     -0.848312   9 H  s               223     -0.848312  11 H  s         
   115      0.764556   6 C  pz              159      0.764556   8 C  pz        

 Vector   32  Occ=0.000000D+00  E= 1.631375D-01  Symmetry=b1
              MO Center=  3.8D-15, -6.2D-16,  9.0D-02, r^2= 1.2D+01
   Bfn.  Coefficient  Atom+Function         Bfn.  Coefficient  Atom+Function  
  ----- ------------  ---------------      ----- ------------  ---------------
    18      1.520568   2 C  s                62      1.520568   4 C  s         
   282     -1.520568  14 C  s               326     -1.520568  16 C  s         
     3     -1.350648   1 H  s                47     -1.350648   3 H  s         
   267      1.350648  13 H  s               311      1.350648  15 H  s         
    25      0.579632   2 C  px               69      0.579632   4 C  px        

 Vector   33  Occ=0.000000D+00  E= 1.807983D-01  Symmetry=b2
              MO Center= -6.1D-16,  1.8D-15,  1.1D+00, r^2= 1.2D+01
   Bfn.  Coefficient  Atom+Function         Bfn.  Coefficient  Atom+Function  
  ----- ------------  ---------------      ----- ------------  ---------------
   179      1.868411   9 H  s               223     -1.868411  11 H  s         
   203     -1.278993  10 C  pz              247      1.278993  12 C  pz        
   106     -1.138911   6 C  s               150      1.138911   8 C  s         
     3      1.002529   1 H  s                47     -1.002529   3 H  s         
   267      1.002529  13 H  s               311     -1.002529  15 H  s         

 Vector   34  Occ=0.000000D+00  E= 1.916735D-01  Symmetry=a1
              MO Center= -2.9D-14, -3.1D-14,  4.3D-01, r^2= 1.3D+01
   Bfn.  Coefficient  Atom+Function         Bfn.  Coefficient  Atom+Function  
  ----- ------------  ---------------      ----- ------------  ---------------
   179      1.574199   9 H  s               223      1.574199  11 H  s         
   194     -1.251407  10 C  s               238     -1.251407  12 C  s         
    91      1.137681   5 H  s               135      1.137681   7 H  s         
     3     -1.111213   1 H  s                47     -1.111213   3 H  s         
   267     -1.111213  13 H  s               311     -1.111213  15 H  s         

 Vector   35  Occ=0.000000D+00  E= 1.995769D-01  Symmetry=a2
              MO Center=  7.4D-14, -1.2D-16,  5.9D-02, r^2= 1.3D+01
   Bfn.  Coefficient  Atom+Function         Bfn.  Coefficient  Atom+Function  
  ----- ------------  ---------------      ----- ------------  ---------------
     3      1.988684   1 H  s                47     -1.988684   3 H  s         
   267     -1.988684  13 H  s               311      1.988684  15 H  s         
    18     -1.799818   2 C  s                62      1.799818   4 C  s         
   282      1.799818  14 C  s               326     -1.799818  16 C  s         
    25     -1.632341   2 C  px               69      1.632341   4 C  px        

 Vector   36  Occ=0.000000D+00  E= 2.058494D-01  Symmetry=b2
              MO Center=  6.4D-14,  3.6D-13, -7.2D-01, r^2= 1.3D+01
   Bfn.  Coefficient  Atom+Function         Bfn.  Coefficient  Atom+Function  
  ----- ------------  ---------------      ----- ------------  ---------------
   106      3.997126   6 C  s               150     -3.997126   8 C  s         
    18     -2.498385   2 C  s                62      2.498385   4 C  s         
   282     -2.498385  14 C  s               326      2.498385  16 C  s         
   203     -2.172115  10 C  pz              247      2.172115  12 C  pz        
   179      1.937359   9 H  s               223     -1.937359  11 H  s         

 Vector   37  Occ=0.000000D+00  E= 2.287289D-01  Symmetry=b2
              MO Center= -2.0D-14, -2.3D-14, -5.8D-01, r^2= 1.4D+01
   Bfn.  Coefficient  Atom+Function         Bfn.  Coefficient  Atom+Function  
  ----- ------------  ---------------      ----- ------------  ---------------
   194      3.178569  10 C  s               238     -3.178569  12 C  s         
    25      2.242191   2 C  px               69     -2.242191   4 C  px        
   289     -2.242191  14 C  px              333      2.242191  16 C  px        
   203     -2.045440  10 C  pz              247      2.045440  12 C  pz        
    91      1.903798   5 H  s               135     -1.903798   7 H  s         

 Vector   38  Occ=0.000000D+00  E= 2.326543D-01  Symmetry=a1
              MO Center=  4.4D-16, -2.8D-14,  3.4D-01, r^2= 8.3D+00
   Bfn.  Coefficient  Atom+Function         Bfn.  Coefficient  Atom+Function  
  ----- ------------  ---------------      ----- ------------  ---------------
   203      1.647861  10 C  pz              247      1.647861  12 C  pz        
   179     -1.372787   9 H  s               223     -1.372787  11 H  s         
   194     -1.338420  10 C  s               238     -1.338420  12 C  s         
   115      1.142517   6 C  pz              159      1.142517   8 C  pz        
    91      1.100089   5 H  s               135      1.100089   7 H  s         

 Vector   39  Occ=0.000000D+00  E= 2.419971D-01  Symmetry=b1
              MO Center=  1.4D-12,  1.1D-13,  3.1D-01, r^2= 7.9D+00
   Bfn.  Coefficient  Atom+Function         Bfn.  Coefficient  Atom+Function  
  ----- ------------  ---------------      ----- ------------  ---------------
    25      1.417148   2 C  px               69      1.417148   4 C  px        
   289      1.417148  14 C  px              333      1.417148  16 C  px        
    18     -1.233078   2 C  s                62     -1.233078   4 C  s         
   282      1.233078  14 C  s               326      1.233078  16 C  s         
     3     -1.189618   1 H  s                47     -1.189618   3 H  s         

 Vector   40  Occ=0.000000D+00  E= 2.901993D-01  Symmetry=b2
              MO Center= -1.4D-13, -1.1D-14,  8.4D-01, r^2= 6.1D+00
   Bfn.  Coefficient  Atom+Function         Bfn.  Coefficient  Atom+Function  
  ----- ------------  ---------------      ----- ------------  ---------------
   194      3.657877  10 C  s               238     -3.657877  12 C  s         
   202      2.740972  10 C  py              246      2.740972  12 C  py        
   179      1.253865   9 H  s               223     -1.253865  11 H  s         
    18      0.830063   2 C  s                62     -0.830063   4 C  s         
   282      0.830063  14 C  s               326     -0.830063  16 C  s         

 Vector   41  Occ=0.000000D+00  E= 3.305254D-01  Symmetry=a1
              MO Center=  5.0D-14, -4.2D-13, -4.8D-01, r^2= 7.9D+00
   Bfn.  Coefficient  Atom+Function         Bfn.  Coefficient  Atom+Function  
  ----- ------------  ---------------      ----- ------------  ---------------
   106     -4.833160   6 C  s               150     -4.833160   8 C  s         
    18      4.430366   2 C  s                62      4.430366   4 C  s         
   282      4.430366  14 C  s               326      4.430366  16 C  s         
   194     -3.659883  10 C  s               238     -3.659883  12 C  s         
   115     -2.423906   6 C  pz              159     -2.423906   8 C  pz        

 Vector   42  Occ=0.000000D+00  E= 3.422089D-01  Symmetry=a2
              MO Center=  9.5D-13, -2.5D-13, -9.9D-02, r^2= 7.3D+00
   Bfn.  Coefficient  Atom+Function         Bfn.  Coefficient  Atom+Function  
  ----- ------------  ---------------      ----- ------------  ---------------
    18      3.502920   2 C  s                62     -3.502920   4 C  s         
   282     -3.502920  14 C  s               326      3.502920  16 C  s         
    26      2.445678   2 C  py               70      2.445678   4 C  py        
   290     -2.445678  14 C  py              334     -2.445678  16 C  py        
     3      1.280757   1 H  s                47     -1.280757   3 H  s         

 Vector   43  Occ=0.000000D+00  E= 3.469264D-01  Symmetry=b1
              MO Center=  5.1D-15,  1.3D-13, -5.3D-01, r^2= 6.4D+00
   Bfn.  Coefficient  Atom+Function         Bfn.  Coefficient  Atom+Function  
  ----- ------------  ---------------      ----- ------------  ---------------
   113      2.075885   6 C  px              157      2.075885   8 C  px        
    18     -1.202017   2 C  s                62     -1.202017   4 C  s         
   282      1.202017  14 C  s               326      1.202017  16 C  s         
    27      1.141261   2 C  pz               71      1.141261   4 C  pz        
   291     -1.141261  14 C  pz              335     -1.141261  16 C  pz        

 Vector   44  Occ=0.000000D+00  E= 3.485456D-01  Symmetry=a2
              MO Center=  5.0D-15, -1.2D-13, -6.2D-01, r^2= 8.3D+00
   Bfn.  Coefficient  Atom+Function         Bfn.  Coefficient  Atom+Function  
  ----- ------------  ---------------      ----- ------------  ---------------
    18      4.698240   2 C  s                62     -4.698240   4 C  s         
   282     -4.698240  14 C  s               326      4.698240  16 C  s         
    25     -2.830852   2 C  px               69      2.830852   4 C  px        
   289     -2.830852  14 C  px              333      2.830852  16 C  px        
   113     -1.949597   6 C  px              157      1.949597   8 C  px        

 Vector   45  Occ=0.000000D+00  E= 3.502260D-01  Symmetry=b2
              MO Center= -2.1D-14,  1.3D-14, -3.7D-01, r^2= 8.5D+00
   Bfn.  Coefficient  Atom+Function         Bfn.  Coefficient  Atom+Function  
  ----- ------------  ---------------      ----- ------------  ---------------
   194      5.250307  10 C  s               238     -5.250307  12 C  s         
   106     -3.781720   6 C  s               150      3.781720   8 C  s         
   203     -2.665438  10 C  pz              247      2.665438  12 C  pz        
   115     -2.058355   6 C  pz              159      2.058355   8 C  pz        
    27     -1.935923   2 C  pz               71      1.935923   4 C  pz        

 Vector   46  Occ=0.000000D+00  E= 3.803975D-01  Symmetry=b1
              MO Center= -1.0D-15, -2.0D-15,  1.2D-01, r^2= 6.5D+00
   Bfn.  Coefficient  Atom+Function         Bfn.  Coefficient  Atom+Function  
  ----- ------------  ---------------      ----- ------------  ---------------
    27      0.678095   2 C  pz               71      0.678095   4 C  pz        
   291     -0.678095  14 C  pz              335     -0.678095  16 C  pz        
   198     -0.342743  10 C  px              242     -0.342743  12 C  px        
   110      0.320473   6 C  px              154      0.320473   8 C  px        
    26      0.314245   2 C  py               70     -0.314245   4 C  py        

 Vector   47  Occ=0.000000D+00  E= 3.808260D-01  Symmetry=a1
              MO Center=  3.0D-14, -6.9D-15,  3.2D-01, r^2= 6.4D+00
   Bfn.  Coefficient  Atom+Function         Bfn.  Coefficient  Atom+Function  
  ----- ------------  ---------------      ----- ------------  ---------------
    90      0.676895   5 H  s               134      0.676895   7 H  s         
   202      0.514741  10 C  py              246     -0.514741  12 C  py        
   115      0.387545   6 C  pz              159      0.387545   8 C  pz        
   112      0.326252   6 C  pz              156      0.326252   8 C  pz        
   203      0.296962  10 C  pz              247      0.296962  12 C  pz        

 Vector   48  Occ=0.000000D+00  E= 4.049776D-01  Symmetry=b2
              MO Center= -5.0D-13, -5.3D-14, -7.0D-01, r^2= 8.6D+00
   Bfn.  Coefficient  Atom+Function         Bfn.  Coefficient  Atom+Function  
  ----- ------------  ---------------      ----- ------------  ---------------
   194     10.250813  10 C  s               238    -10.250813  12 C  s         
    18     -7.242205   2 C  s                62      7.242205   4 C  s         
   282     -7.242205  14 C  s               326      7.242205  16 C  s         
   106      5.087876   6 C  s               150     -5.087876   8 C  s         
   203     -3.810693  10 C  pz              247      3.810693  12 C  pz        

 Vector   49  Occ=0.000000D+00  E= 4.103773D-01  Symmetry=a1
              MO Center= -9.5D-14,  8.4D-15,  5.4D-01, r^2= 6.9D+00
   Bfn.  Coefficient  Atom+Function         Bfn.  Coefficient  Atom+Function  
  ----- ------------  ---------------      ----- ------------  ---------------
    18      1.375735   2 C  s                62      1.375735   4 C  s         
   282      1.375735  14 C  s               326      1.375735  16 C  s         
   203      1.178150  10 C  pz              247      1.178150  12 C  pz        
   115     -0.955856   6 C  pz              159     -0.955856   8 C  pz        
    90     -0.872484   5 H  s               134     -0.872484   7 H  s         

 Vector   50  Occ=0.000000D+00  E= 4.232197D-01  Symmetry=b1
              MO Center= -3.0D-15,  8.1D-14,  1.9D-01, r^2= 7.8D+00
   Bfn.  Coefficient  Atom+Function         Bfn.  Coefficient  Atom+Function  
  ----- ------------  ---------------      ----- ------------  ---------------
    26      0.777414   2 C  py               70     -0.777414   4 C  py        
   290     -0.777414  14 C  py              334      0.777414  16 C  py        
   201     -0.569496  10 C  px              245     -0.569496  12 C  px        
    25      0.420912   2 C  px               69      0.420912   4 C  px        
   289      0.420912  14 C  px              333      0.420912  16 C  px        

 Vector   51  Occ=0.000000D+00  E= 4.237889D-01  Symmetry=a2
              MO Center= -3.8D-14,  4.1D-14,  8.2D-01, r^2= 7.3D+00
   Bfn.  Coefficient  Atom+Function         Bfn.  Coefficient  Atom+Function  
  ----- ------------  ---------------      ----- ------------  ---------------
   201      2.482326  10 C  px              245     -2.482326  12 C  px        
   113     -1.375270   6 C  px              157      1.375270   8 C  px        
    18     -0.946997   2 C  s                62      0.946997   4 C  s         
   282      0.946997  14 C  s               326     -0.946997  16 C  s         
    27     -0.882593   2 C  pz               71      0.882593   4 C  pz        

 Vector   52  Occ=0.000000D+00  E= 4.640716D-01  Symmetry=b2
              MO Center=  4.9D-13,  7.8D-15,  3.4D-01, r^2= 7.3D+00
   Bfn.  Coefficient  Atom+Function         Bfn.  Coefficient  Atom+Function  
  ----- ------------  ---------------      ----- ------------  ---------------
   194      6.226633  10 C  s               238     -6.226633  12 C  s         
   202      4.414791  10 C  py              246      4.414791  12 C  py        
    26     -3.295894   2 C  py               70     -3.295894   4 C  py        
   290     -3.295894  14 C  py              334     -3.295894  16 C  py        
    18     -2.936458   2 C  s                62      2.936458   4 C  s         

 Vector   53  Occ=0.000000D+00  E= 4.826838D-01  Symmetry=a1
              MO Center= -6.8D-13, -4.0D-14, -7.7D-01, r^2= 8.4D+00
   Bfn.  Coefficient  Atom+Function         Bfn.  Coefficient  Atom+Function  
  ----- ------------  ---------------      ----- ------------  ---------------
   114      1.292049   6 C  py              158     -1.292049   8 C  py        
    26     -0.869033   2 C  py               70      0.869033   4 C  py        
   290     -0.869033  14 C  py              334      0.869033  16 C  py        
   106     -0.739798   6 C  s               150     -0.739798   8 C  s         
    90      0.529572   5 H  s               134      0.529572   7 H  s         

 Vector   54  Occ=0.000000D+00  E= 4.961928D-01  Symmetry=a2
              MO Center=  4.4D-16,  7.0D-15, -1.5D-01, r^2= 7.5D+00
   Bfn.  Coefficient  Atom+Function         Bfn.  Coefficient  Atom+Function  
  ----- ------------  ---------------      ----- ------------  ---------------
    27      2.998721   2 C  pz               71     -2.998721   4 C  pz        
   291     -2.998721  14 C  pz              335      2.998721  16 C  pz        
   113      2.306294   6 C  px              157     -2.306294   8 C  px        
    26      2.106062   2 C  py               70      2.106062   4 C  py        
   290     -2.106062  14 C  py              334     -2.106062  16 C  py        

 Vector   55  Occ=0.000000D+00  E= 4.970273D-01  Symmetry=a1
              MO Center=  8.2D-15, -1.8D-15, -1.5D-01, r^2= 5.9D+00
   Bfn.  Coefficient  Atom+Function         Bfn.  Coefficient  Atom+Function  
  ----- ------------  ---------------      ----- ------------  ---------------
   194      2.142452  10 C  s               238      2.142452  12 C  s         
   203     -1.206544  10 C  pz              247     -1.206544  12 C  pz        
   202      0.845057  10 C  py              246     -0.845057  12 C  py        
    27     -0.748928   2 C  pz               71     -0.748928   4 C  pz        
   291     -0.748928  14 C  pz              335     -0.748928  16 C  pz        

 Vector   56  Occ=0.000000D+00  E= 5.271726D-01  Symmetry=a1
              MO Center=  2.9D-13,  3.1D-12,  3.1D-01, r^2= 7.4D+00
   Bfn.  Coefficient  Atom+Function         Bfn.  Coefficient  Atom+Function  
  ----- ------------  ---------------      ----- ------------  ---------------
   106      3.877897   6 C  s               150      3.877897   8 C  s         
   115      1.932156   6 C  pz              159      1.932156   8 C  pz        
   203      1.814557  10 C  pz              247      1.814557  12 C  pz        
   179     -1.216846   9 H  s               223     -1.216846  11 H  s         
   114      1.006544   6 C  py              158     -1.006544   8 C  py        


                     UHF Final Beta Molecular Orbital Analysis
                     -----------------------------------------

 Vector    9  Occ=1.000000D+00  E=-1.215502D+00  Symmetry=a1
              MO Center= -2.5D-15,  3.3D-16,  2.1D-01, r^2= 1.7D+00
   Bfn.  Coefficient  Atom+Function         Bfn.  Coefficient  Atom+Function  
  ----- ------------  ---------------      ----- ------------  ---------------
   192      0.193164  10 C  s               236      0.193164  12 C  s         
    16      0.172369   2 C  s                60      0.172369   4 C  s         
   280      0.172369  14 C  s               324      0.172369  16 C  s         

 Vector   10  Occ=1.000000D+00  E=-1.021697D+00  Symmetry=b2
              MO Center=  7.2D-16,  6.0D-15, -6.2D-02, r^2= 2.5D+00
   Bfn.  Coefficient  Atom+Function         Bfn.  Coefficient  Atom+Function  
  ----- ------------  ---------------      ----- ------------  ---------------
   104      0.187876   6 C  s               148     -0.187876   8 C  s         
    16      0.170889   2 C  s                60     -0.170889   4 C  s         
   280      0.170889  14 C  s               324     -0.170889  16 C  s         
   194      0.151807  10 C  s               238     -0.151807  12 C  s         

 Vector   11  Occ=1.000000D+00  E=-9.602056D-01  Symmetry=b1
              MO Center=  3.3D-16, -2.6D-15,  6.7D-03, r^2= 2.8D+00
   Bfn.  Coefficient  Atom+Function         Bfn.  Coefficient  Atom+Function  
  ----- ------------  ---------------      ----- ------------  ---------------
    16      0.239608   2 C  s                60      0.239608   4 C  s         
   280     -0.239608  14 C  s               324     -0.239608  16 C  s         

 Vector   12  Occ=1.000000D+00  E=-9.147328D-01  Symmetry=a1
              MO Center=  6.9D-14, -4.3D-14,  2.2D-01, r^2= 2.9D+00
   Bfn.  Coefficient  Atom+Function         Bfn.  Coefficient  Atom+Function  
  ----- ------------  ---------------      ----- ------------  ---------------
   192      0.243091  10 C  s               236      0.243091  12 C  s         
   104     -0.192757   6 C  s               148     -0.192757   8 C  s         

 Vector   13  Occ=1.000000D+00  E=-7.874519D-01  Symmetry=a2
              MO Center= -1.8D-14,  8.8D-15, -8.8D-02, r^2= 3.9D+00
   Bfn.  Coefficient  Atom+Function         Bfn.  Coefficient  Atom+Function  
  ----- ------------  ---------------      ----- ------------  ---------------
    16      0.218273   2 C  s                60     -0.218273   4 C  s         
   280     -0.218273  14 C  s               324      0.218273  16 C  s         

 Vector   14  Occ=1.000000D+00  E=-7.720347D-01  Symmetry=b2
              MO Center= -1.2D-15,  1.6D-14,  1.2D-01, r^2= 4.2D+00
   Bfn.  Coefficient  Atom+Function         Bfn.  Coefficient  Atom+Function  
  ----- ------------  ---------------      ----- ------------  ---------------
   192     -0.224078  10 C  s               236      0.224078  12 C  s         
   104      0.208953   6 C  s               148     -0.208953   8 C  s         

 Vector   15  Occ=1.000000D+00  E=-7.382198D-01  Symmetry=a1
              MO Center=  1.6D-15, -4.0D-14, -2.5D-01, r^2= 4.2D+00
   Bfn.  Coefficient  Atom+Function         Bfn.  Coefficient  Atom+Function  
  ----- ------------  ---------------      ----- ------------  ---------------
   104      0.178496   6 C  s               148      0.178496   8 C  s         

 Vector   16  Occ=1.000000D+00  E=-6.979664D-01  Symmetry=a1
              MO Center= -1.1D-16,  5.8D-16,  3.1D-01, r^2= 4.3D+00
   Bfn.  Coefficient  Atom+Function         Bfn.  Coefficient  Atom+Function  
  ----- ------------  ---------------      ----- ------------  ---------------
   178      0.119503   9 H  s               222      0.119503  11 H  s         
   200      0.111653  10 C  pz              244      0.111653  12 C  pz        

 Vector   17  Occ=1.000000D+00  E=-6.441985D-01  Symmetry=b2
              MO Center=  3.1D-14,  3.3D-14, -1.9D-01, r^2= 5.2D+00
   Bfn.  Coefficient  Atom+Function         Bfn.  Coefficient  Atom+Function  
  ----- ------------  ---------------      ----- ------------  ---------------
   104     -0.120783   6 C  s               148      0.120783   8 C  s         
   192     -0.117590  10 C  s               236      0.117590  12 C  s         
    90     -0.116028   5 H  s               134      0.116028   7 H  s         
    16      0.110742   2 C  s                60     -0.110742   4 C  s         
   280      0.110742  14 C  s               324     -0.110742  16 C  s         

 Vector   18  Occ=1.000000D+00  E=-6.106623D-01  Symmetry=a1
              MO Center=  7.4D-16, -3.9D-15, -2.1D-01, r^2= 3.8D+00
   Bfn.  Coefficient  Atom+Function         Bfn.  Coefficient  Atom+Function  
  ----- ------------  ---------------      ----- ------------  ---------------
   199      0.158968  10 C  py              243     -0.158968  12 C  py        

 Vector   19  Occ=1.000000D+00  E=-6.079152D-01  Symmetry=b2
              MO Center=  1.9D-14,  1.5D-15, -1.0D-01, r^2= 4.4D+00
   Bfn.  Coefficient  Atom+Function         Bfn.  Coefficient  Atom+Function  
  ----- ------------  ---------------      ----- ------------  ---------------
    22      0.128356   2 C  px               66     -0.128356   4 C  px        
   286     -0.128356  14 C  px              330      0.128356  16 C  px        

 Vector   20  Occ=1.000000D+00  E=-5.726170D-01  Symmetry=b1
              MO Center= -1.2D-14, -7.4D-15,  1.4D-01, r^2= 3.0D+00
   Bfn.  Coefficient  Atom+Function         Bfn.  Coefficient  Atom+Function  
  ----- ------------  ---------------      ----- ------------  ---------------
   198      0.151758  10 C  px              242      0.151758  12 C  px        

 Vector   21  Occ=1.000000D+00  E=-5.212146D-01  Symmetry=b1
              MO Center= -1.4D-15,  2.5D-16, -2.3D-01, r^2= 3.6D+00
   Bfn.  Coefficient  Atom+Function         Bfn.  Coefficient  Atom+Function  
  ----- ------------  ---------------      ----- ------------  ---------------
   110     -0.134476   6 C  px              154     -0.134476   8 C  px        
    22      0.130734   2 C  px               66      0.130734   4 C  px        
   286      0.130734  14 C  px              330      0.130734  16 C  px        

 Vector   22  Occ=1.000000D+00  E=-4.966735D-01  Symmetry=a1
              MO Center=  4.7D-14,  2.5D-14,  1.9D-01, r^2= 3.3D+00
   Bfn.  Coefficient  Atom+Function         Bfn.  Coefficient  Atom+Function  
  ----- ------------  ---------------      ----- ------------  ---------------
   200      0.149984  10 C  pz              244      0.149984  12 C  pz        

 Vector   23  Occ=1.000000D+00  E=-4.385694D-01  Symmetry=a2
              MO Center= -2.4D-15, -3.1D-16, -3.7D-01, r^2= 3.4D+00
   Bfn.  Coefficient  Atom+Function         Bfn.  Coefficient  Atom+Function  
  ----- ------------  ---------------      ----- ------------  ---------------
   110      0.192081   6 C  px              154     -0.192081   8 C  px        

 Vector   24  Occ=1.000000D+00  E=-4.237413D-01  Symmetry=b1
              MO Center= -7.9D-15, -6.1D-15,  3.2D-02, r^2= 2.8D+00
   Bfn.  Coefficient  Atom+Function         Bfn.  Coefficient  Atom+Function  
  ----- ------------  ---------------      ----- ------------  ---------------
    23      0.181991   2 C  py               67     -0.181991   4 C  py        
   287     -0.181991  14 C  py              331      0.181991  16 C  py        

 Vector   25  Occ=1.000000D+00  E=-4.055753D-01  Symmetry=b2
              MO Center= -3.1D-14, -7.0D-14,  1.7D-01, r^2= 3.6D+00
   Bfn.  Coefficient  Atom+Function         Bfn.  Coefficient  Atom+Function  
  ----- ------------  ---------------      ----- ------------  ---------------
   194      0.190594  10 C  s               238     -0.190594  12 C  s         
   200     -0.172936  10 C  pz              244      0.172936  12 C  pz        
   203     -0.157820  10 C  pz              247      0.157820  12 C  pz        

 Vector   26  Occ=1.000000D+00  E=-4.029778D-01  Symmetry=a1
              MO Center= -1.8D-14,  8.4D-14,  4.9D-01, r^2= 3.0D+00
   Bfn.  Coefficient  Atom+Function         Bfn.  Coefficient  Atom+Function  
  ----- ------------  ---------------      ----- ------------  ---------------
   199      0.226966  10 C  py              243     -0.226966  12 C  py        
   196      0.167165  10 C  py              240     -0.167165  12 C  py        
   202      0.151563  10 C  py              246     -0.151563  12 C  py        

 Vector   27  Occ=1.000000D+00  E=-3.801863D-01  Symmetry=a2
              MO Center=  9.4D-15,  1.2D-17,  4.6D-01, r^2= 3.0D+00
   Bfn.  Coefficient  Atom+Function         Bfn.  Coefficient  Atom+Function  
  ----- ------------  ---------------      ----- ------------  ---------------
   198      0.213599  10 C  px              242     -0.213599  12 C  px        
   195      0.154782  10 C  px              239     -0.154782  12 C  px        

 Vector   28  Occ=0.000000D+00  E= 1.137004D-01  Symmetry=b2
              MO Center= -1.7D-16,  6.3D-15, -4.5D-01, r^2= 5.7D+00
   Bfn.  Coefficient  Atom+Function         Bfn.  Coefficient  Atom+Function  
  ----- ------------  ---------------      ----- ------------  ---------------
   194      1.527967  10 C  s               238     -1.527967  12 C  s         
   106      1.356479   6 C  s               150     -1.356479   8 C  s         
   114      0.711071   6 C  py              158      0.711071   8 C  py        
    25      0.608911   2 C  px               69     -0.608911   4 C  px        
   289     -0.608911  14 C  px              333      0.608911  16 C  px        

 Vector   29  Occ=0.000000D+00  E= 1.306756D-01  Symmetry=a1
              MO Center= -3.1D-15,  4.3D-15, -9.6D-01, r^2= 6.7D+00
   Bfn.  Coefficient  Atom+Function         Bfn.  Coefficient  Atom+Function  
  ----- ------------  ---------------      ----- ------------  ---------------
    18      1.052321   2 C  s                62      1.052321   4 C  s         
   282      1.052321  14 C  s               326      1.052321  16 C  s         
    91     -0.781166   5 H  s               135     -0.781166   7 H  s         
     3     -0.583811   1 H  s                47     -0.583811   3 H  s         
   267     -0.583811  13 H  s               311     -0.583811  15 H  s         

 Vector   30  Occ=0.000000D+00  E= 1.524707D-01  Symmetry=a1
              MO Center=  5.6D-16, -3.9D-16,  1.2D+00, r^2= 1.0D+01
   Bfn.  Coefficient  Atom+Function         Bfn.  Coefficient  Atom+Function  
  ----- ------------  ---------------      ----- ------------  ---------------
   194      1.518744  10 C  s               238      1.518744  12 C  s         
   179     -1.362733   9 H  s               223     -1.362733  11 H  s         
     3     -0.805051   1 H  s                47     -0.805051   3 H  s         
   267     -0.805051  13 H  s               311     -0.805051  15 H  s         
   202     -0.488012  10 C  py              246      0.488012  12 C  py        

 Vector   31  Occ=0.000000D+00  E= 1.640945D-01  Symmetry=b1
              MO Center=  3.8D-15,  1.8D-15,  9.4D-02, r^2= 1.2D+01
   Bfn.  Coefficient  Atom+Function         Bfn.  Coefficient  Atom+Function  
  ----- ------------  ---------------      ----- ------------  ---------------
    18      1.516284   2 C  s                62      1.516284   4 C  s         
   282     -1.516284  14 C  s               326     -1.516284  16 C  s         
     3     -1.355830   1 H  s                47     -1.355830   3 H  s         
   267      1.355830  13 H  s               311      1.355830  15 H  s         
    25      0.583813   2 C  px               69      0.583813   4 C  px        

 Vector   32  Occ=0.000000D+00  E= 1.725530D-01  Symmetry=a1
              MO Center=  8.3D-16,  9.4D-15, -1.6D+00, r^2= 7.8D+00
   Bfn.  Coefficient  Atom+Function         Bfn.  Coefficient  Atom+Function  
  ----- ------------  ---------------      ----- ------------  ---------------
   106      1.760863   6 C  s               150      1.760863   8 C  s         
    91     -1.464000   5 H  s               135     -1.464000   7 H  s         
   194     -0.954476  10 C  s               238     -0.954476  12 C  s         
   115     -0.663940   6 C  pz              159     -0.663940   8 C  pz        
    27      0.465032   2 C  pz               71      0.465032   4 C  pz        

 Vector   33  Occ=0.000000D+00  E= 1.904167D-01  Symmetry=b2
              MO Center= -4.1D-15, -1.4D-14,  1.7D+00, r^2= 1.0D+01
   Bfn.  Coefficient  Atom+Function         Bfn.  Coefficient  Atom+Function  
  ----- ------------  ---------------      ----- ------------  ---------------
   179      2.349534   9 H  s               223     -2.349534  11 H  s         
   203     -1.854398  10 C  pz              247      1.854398  12 C  pz        
   202      1.525701  10 C  py              246      1.525701  12 C  py        
    18     -1.478088   2 C  s                62      1.478088   4 C  s         
[...]
   1 H       3.866237  -2.404686   0.027224   -0.000002   0.000025  -0.000005
   2 C       2.016711  -1.521978  -0.107166   -0.000072  -0.000106  -0.000022
   3 H       3.866237   2.404686   0.027224   -0.000002  -0.000025  -0.000005
   4 C       2.016711   1.521978  -0.107166   -0.000072   0.000106  -0.000022
   5 H       0.000000  -2.884632  -3.845277    0.000000   0.000008  -0.000083
   6 C       0.000000  -2.488095  -1.839116    0.000000  -0.000021   0.000152
   7 H       0.000000   2.884632  -3.845277    0.000000  -0.000008  -0.000083
   8 C       0.000000   2.488095  -1.839116    0.000000   0.000021   0.000152
   9 H       0.000000  -2.735322   3.672933    0.000000  -0.000046  -0.000026
  10 C       0.000000  -1.458448   2.068306    0.000000  -0.000103   0.000010
  11 H       0.000000   2.735322   3.672933    0.000000   0.000046  -0.000026
  12 C       0.000000   1.458448   2.068306    0.000000   0.000103   0.000010
  13 H      -3.866237  -2.404686   0.027224    0.000002   0.000025  -0.000005
  14 C      -2.016711  -1.521978  -0.107166    0.000072  -0.000106  -0.000022
  15 H      -3.866237   2.404686   0.027224    0.000002  -0.000025  -0.000005
  16 C      -2.016711   1.521978  -0.107166    0.000072   0.000106  -0.000022

                 ----------------------------------------
                 |  Time  |  1-e(secs)   |  2-e(secs)   |
                 ----------------------------------------
                 |  CPU   |       0.06   |      69.42   |
                 ----------------------------------------
                 |  WALL  |       0.06   |      69.54   |
                 ----------------------------------------
 -----------------------
 Performance information
 -----------------------

 Timer overhead =  0.00D+00 seconds/call

               Nr. of calls         CPU time (s)                 Wall time (s)                GFlops
             ---------------    -------------------     ------------------------------   -------------------
Name         Min   Avg   Max    Min     Avg     Max     Min     Avg     Max   Mx/calls   Min     Max     Sum
mp2: moin     2     2     2   4.78E+2 4.78E+2 4.78E+2  4.42E+2 4.42E+2 4.42E+2 2.21E+2   0.0     0.0     0.0   
mp2: make     2     2     2    21.     21.     21.      22.     22.     22.     11.      0.0     0.0     0.0   
mp2: pija     2     2     2   0.47    0.47    0.47     0.50    0.50    0.50    0.25      0.0     0.0     0.0   
mp2: wija     2     2     2   0.53    0.53    0.53     0.57    0.57    0.57    0.28      0.0     0.0     0.0   
mp2: lai      2     2     2   3.04E+2 3.04E+2 3.04E+2   88.     88.     88.     44.      0.0     0.0     0.0   
mp2: back     2     2     2    66.     66.     66.      32.     32.     32.     16.      0.0     0.0     0.0   
mp2: nons     2     2     2   3.60E+2 3.60E+2 3.60E+2  3.61E+2 3.61E+2 3.61E+2 1.80E+2   0.0     0.0     0.0   
mp2: laif     1     1     1    83.     83.     83.      83.     83.     83.     83.      0.0     0.0     0.0   
mp2: cphf     1     1     1   3.03E+2 3.03E+2 3.03E+2  3.03E+2 3.03E+2 3.03E+2 3.03E+2   0.0     0.0     0.0   
mp2: wijf     1     1     1    84.     84.     84.      84.     84.     84.     84.      0.0     0.0     0.0   
mp2: sep      1     1     1    70.     70.     70.      70.     70.     70.     70.      0.0     0.0     0.0   
mp2: tota     1     1     1   1.77E+3 1.77E+3 1.77E+3  1.49E+3 1.49E+3 1.49E+3 1.49E+3   0.0     0.0     0.0   

 The average no. of pstat calls per process was 1.90D+01
 with a timing overhead of 0.00D+00s


  Step       Energy      Delta E   Gmax     Grms     Xrms     Xmax   Walltime
  ---- ---------------- -------- -------- -------- -------- -------- --------
@    6    -308.70316724 -3.0D-06  0.00012  0.00002  0.00179  0.00506  18074.2
                                     ok       ok                    



                                Z-matrix (autoz)
                                -------- 

 Units are Angstrom for bonds and degrees for angles

      Type          Name      I     J     K     L     M      Value     Gradient
      ----------- --------  ----- ----- ----- ----- ----- ---------- ----------
    1 Stretch                  1     2                       1.08681   -0.00001
    2 Stretch                  2     4                       1.61079    0.00010
    3 Stretch                  2     6                       1.49675   -0.00004
    4 Stretch                  2    10                       1.57014   -0.00003
    5 Stretch                  3     4                       1.08681   -0.00001
    6 Stretch                  4     8                       1.49675   -0.00004
    7 Stretch                  4    12                       1.57014   -0.00003
    8 Stretch                  5     6                       1.08215    0.00008
    9 Stretch                  6    14                       1.49675   -0.00004
   10 Stretch                  7     8                       1.08215    0.00008
   11 Stretch                  8    16                       1.49675   -0.00004
   12 Stretch                  9    10                       1.08517    0.00001
   13 Stretch                 10    12                       1.54356    0.00012
   14 Stretch                 10    14                       1.57014   -0.00003
   15 Stretch                 11    12                       1.08517    0.00001
   16 Stretch                 12    16                       1.57014   -0.00003
   17 Stretch                 13    14                       1.08681   -0.00001
   18 Stretch                 14    16                       1.61079    0.00010
   19 Stretch                 15    16                       1.08681   -0.00001
   20 Bend                     1     2     4               115.45477   -0.00000
   21 Bend                     1     2     6               122.36845    0.00000
   22 Bend                     1     2    10               124.98178   -0.00000
   23 Bend                     2     4     3               115.45477   -0.00000
   24 Bend                     2     4     8               109.97260   -0.00000
   25 Bend                     2     4    12                88.77314    0.00001
   26 Bend                     2     6     5               131.83148   -0.00000
   27 Bend                     2     6    14                90.96036    0.00001
   28 Bend                     2    10     9               124.08233    0.00000
   29 Bend                     2    10    12                91.22686   -0.00001
   30 Bend                     2    10    14                85.63804   -0.00001
   31 Bend                     3     4     8               122.36845    0.00000
   32 Bend                     3     4    12               124.98178   -0.00000
   33 Bend                     4     2     6               109.97260   -0.00000
   34 Bend                     4     2    10                88.77314    0.00001
   35 Bend                     4     8     7               131.83148   -0.00000
   36 Bend                     4     8    16                90.96036    0.00001
   37 Bend                     4    12    10                91.22686   -0.00001
   38 Bend                     4    12    11               124.08233    0.00000
   39 Bend                     4    12    16                85.63804   -0.00001
   40 Bend                     5     6    14               131.83148   -0.00000
   41 Bend                     6     2    10                88.37537   -0.00000
   42 Bend                     6    14    10                88.37537   -0.00000
   43 Bend                     6    14    13               122.36845    0.00000
   44 Bend                     6    14    16               109.97260   -0.00000
   45 Bend                     7     8    16               131.83148   -0.00000
   46 Bend                     8     4    12                88.37537   -0.00000
   47 Bend                     8    16    12                88.37537   -0.00000
   48 Bend                     8    16    14               109.97260   -0.00000
   49 Bend                     8    16    15               122.36845    0.00000
   50 Bend                     9    10    12               128.51083    0.00001
   51 Bend                     9    10    14               124.08233    0.00000
   52 Bend                    10    12    11               128.51083    0.00001
   53 Bend                    10    12    16                91.22686   -0.00001
   54 Bend                    10    14    13               124.98178   -0.00000
   55 Bend                    10    14    16                88.77314    0.00001
   56 Bend                    11    12    16               124.08233    0.00000
   57 Bend                    12    10    14                91.22686   -0.00001
   58 Bend                    12    16    14                88.77314    0.00001
   59 Bend                    12    16    15               124.98178   -0.00000
   60 Bend                    13    14    16               115.45477   -0.00000
   61 Bend                    14    16    15               115.45477   -0.00000
   62 Torsion                  1     2     4     3           0.00000   -0.00000
   63 Torsion                  1     2     4     8         143.49997   -0.00000
   64 Torsion                  1     2     4    12        -128.67526   -0.00000
   65 Torsion                  1     2     6     5         -53.28920   -0.00000
   66 Torsion                  1     2     6    14         151.17467    0.00001
   67 Torsion                  1     2    10     9         -19.39276   -0.00001
   68 Torsion                  1     2    10    12         120.64418    0.00000
   69 Torsion                  1     2    10    14        -148.21873   -0.00001
   70 Torsion                  2     4     8     7         -87.22536    0.00001
   71 Torsion                  2     4     8    16          68.31078   -0.00000
   72 Torsion                  2     4    12    10           0.00000   -0.00000
   73 Torsion                  2     4    12    11         140.03694    0.00001
   74 Torsion                  2     4    12    16         -91.13709    0.00001
   75 Torsion                  2     6    14    10         -19.79248   -0.00001
   76 Torsion                  2     6    14    13        -151.17467   -0.00001
   77 Torsion                  2     6    14    16          68.31078   -0.00000
   78 Torsion                  2    10    12     4           0.00000    0.00000
   79 Torsion                  2    10    12    11        -137.16881   -0.00000
   80 Torsion                  2    10    12    16          85.66239   -0.00001
   81 Torsion                  2    10    14     6          18.88570    0.00001
   82 Torsion                  2    10    14    13         148.21873    0.00001
   83 Torsion                  2    10    14    16         -91.13709    0.00001
   84 Torsion                  3     4     2     6        -143.49997    0.00000
   85 Torsion                  3     4     2    10         128.67526    0.00000
   86 Torsion                  3     4     8     7          53.28920    0.00000
   87 Torsion                  3     4     8    16        -151.17467   -0.00001
   88 Torsion                  3     4    12    10        -120.64418   -0.00000
   89 Torsion                  3     4    12    11          19.39276    0.00001
   90 Torsion                  3     4    12    16         148.21873    0.00001
   91 Torsion                  4     2     6     5          87.22536   -0.00001
   92 Torsion                  4     2     6    14         -68.31078    0.00000
   93 Torsion                  4     2    10     9        -140.03694   -0.00001
   94 Torsion                  4     2    10    12           0.00000   -0.00000
   95 Torsion                  4     2    10    14          91.13709   -0.00001
   96 Torsion                  4     8    16    12          19.79248    0.00001
   97 Torsion                  4     8    16    14         -68.31078    0.00000
   98 Torsion                  4     8    16    15         151.17467    0.00001
   99 Torsion                  4    12    10     9         137.16881    0.00000
  100 Torsion                  4    12    10    14         -85.66239    0.00001
  101 Torsion                  4    12    16     8         -18.88570   -0.00001
  102 Torsion                  4    12    16    14          91.13709   -0.00001
  103 Torsion                  4    12    16    15        -148.21873   -0.00001
  104 Torsion                  5     6     2    10         175.32862   -0.00000
  105 Torsion                  5     6    14    10        -175.32862    0.00000
  106 Torsion                  5     6    14    13          53.28920    0.00000
  107 Torsion                  5     6    14    16         -87.22536    0.00001
  108 Torsion                  6     2     4     8           0.00000   -0.00000
  109 Torsion                  6     2     4    12          87.82477    0.00000
  110 Torsion                  6     2    10     9         109.94027   -0.00001
  111 Torsion                  6     2    10    12        -110.02279    0.00000
  112 Torsion                  6     2    10    14         -18.88570   -0.00001
  113 Torsion                  6    14    10     9        -109.94027    0.00001
  114 Torsion                  6    14    10    12         110.02279   -0.00000
  115 Torsion                  6    14    16     8           0.00000    0.00000
  116 Torsion                  6    14    16    12         -87.82477   -0.00000
  117 Torsion                  6    14    16    15         143.49997   -0.00000
  118 Torsion                  7     8     4    12        -175.32862    0.00000
  119 Torsion                  7     8    16    12         175.32862   -0.00000
  120 Torsion                  7     8    16    14          87.22536   -0.00001
  121 Torsion                  7     8    16    15         -53.28920   -0.00000
  122 Torsion                  8     4     2    10         -87.82477   -0.00000
  123 Torsion                  8     4    12    10         110.02279   -0.00000
  124 Torsion                  8     4    12    11        -109.94027    0.00001
  125 Torsion                  8     4    12    16          18.88570    0.00001
  126 Torsion                  8    16    12    10        -110.02279    0.00000
  127 Torsion                  8    16    12    11         109.94027   -0.00001
  128 Torsion                  8    16    14    10          87.82477    0.00000
  129 Torsion                  8    16    14    13        -143.49997    0.00000
  130 Torsion                  9    10    12    11           0.00000   -0.00000
  131 Torsion                  9    10    12    16        -137.16881   -0.00000
  132 Torsion                  9    10    14    13          19.39276    0.00001
  133 Torsion                  9    10    14    16         140.03694    0.00001
  134 Torsion                 10     2     4    12           0.00000    0.00000
  135 Torsion                 10     2     6    14          19.79248    0.00001
  136 Torsion                 10    12    16    14           0.00000    0.00000
  137 Torsion                 10    12    16    15         120.64418    0.00000
  138 Torsion                 10    14    16    12           0.00000   -0.00000
  139 Torsion                 10    14    16    15        -128.67526   -0.00000
  140 Torsion                 11    12    10    14         137.16881    0.00000
  141 Torsion                 11    12    16    14        -140.03694   -0.00001
  142 Torsion                 11    12    16    15         -19.39276   -0.00001
  143 Torsion                 12     4     8    16         -19.79248   -0.00001
  144 Torsion                 12    10    14    13        -120.64418   -0.00000
  145 Torsion                 12    10    14    16          -0.00000    0.00000
  146 Torsion                 12    16    14    13         128.67526    0.00000
  147 Torsion                 13    14    16    15           0.00000   -0.00000
  148 Torsion                 14    10    12    16           0.00000   -0.00000

                                 NWChem SCF Module
                                 -----------------


               cubane T-biradical MP2/cc-pVTZ geometry optimization



  ao basis        = "ao basis"
  functions       =   352
  atoms           =    16
  alpha electrons =    29
  beta  electrons =    27
  charge          =   0.00
  wavefunction    = UHF 
  input vectors   = ./triplet.movecs
  output vectors  = ./triplet.movecs
  use symmetry    = T
  symmetry adapt  = T


 Summary of "ao basis" -> "ao basis" (spherical)
 ------------------------------------------------------------------------------
       Tag                 Description            Shells   Functions and Types
 ---------------- ------------------------------  ------  ---------------------
 H                          cc-pVTZ                  6       14   3s2p1d
 C                          cc-pVTZ                 10       30   4s3p2d1f


      Symmetry analysis of basis
      --------------------------

        a1        104
        a2         72
        b1         72
        b2        104


 Forming initial guess at   18074.6s


 Loading old vectors from job with title :

cubane T-biradical MP2/cc-pVTZ geometry optimization


   Symmetry analysis of molecular orbitals - initial alpha
   -------------------------------------------------------

  Numbering of irreducible representations: 

     1 a1          2 a2          3 b1          4 b2      

  Orbital symmetries:

     1 a1          2 b1          3 b2          4 a2          5 a1      
     6 b2          7 a1          8 b2          9 a1         10 b2      
    11 b1         12 a1         13 b2         14 a2         15 a1      
    16 a1         17 b2         18 a1         19 b2         20 b1      
    21 a1         22 b1         23 a2         24 b1         25 b2      
    26 a1         27 a2         28 b2         29 a1         30 a1      
    31 a1         32 b1         33 b2         34 a1         35 a2      
    36 b2         37 b2         38 a1         39 b1      


   Symmetry analysis of molecular orbitals - initial beta
   ------------------------------------------------------

  Numbering of irreducible representations: 

     1 a1          2 a2          3 b1          4 b2      

  Orbital symmetries:

     1 a1          2 b1          3 b2          4 a2          5 a1      
     6 b2          7 b2          8 a1          9 a1         10 b2      
    11 b1         12 a1         13 a2         14 b2         15 a1      
    16 a1         17 b2         18 a1         19 b2         20 b1      
    21 b1         22 a1         23 a2         24 b1         25 b2      
    26 a1         27 a2         28 b2         29 a1         30 a1      
    31 b1         32 a1         33 b2         34 a1         35 a2      
    36 b2         37 b2         38 a1         39 b1      


 Starting SCF solution at   18074.9s



 ----------------------------------------------
         Quadratically convergent UHF

 Convergence threshold     :          1.000E-06
 Maximum no. of iterations :           30
 Integral*density screening:          1.000E-08
 ----------------------------------------------


              iter       energy          gnorm     gmax       time
             ----- ------------------- --------- --------- --------
                 1     -307.4562346193  1.27D-03  1.70D-04  20331.9
--------------------------------------------------------------------------
MPI_ABORT was invoked on rank 0 in communicator MPI COMMUNICATOR 4 DUP FROM 0 
with errorcode 15.

NOTE: invoking MPI_ABORT causes Open MPI to kill all MPI processes.
You may or may not see output from other processes, depending on
exactly when Open MPI kills them.
--------------------------------------------------------------------------
0:Terminate signal was sent, status=: 15
(rank:0 hostname:konkov-work pid:2123):ARMCI DASSERT fail. ../../ga-5-4/armci/src/common/signaltrap.c:SigTermHandler():477 cond:0
