
                                 *****************
                                 * O   R   C   A *
                                 *****************

           --- An Ab Initio, DFT and Semiempirical electronic structure package ---

                  #######################################################
                  #                        -***-                        #
                  #  Department of molecular theory and spectroscopy    #
                  #              Directorship: Frank Neese              #
                  # Max Planck Institute for Chemical Energy Conversion #
                  #                  D-45470 Muelheim/Ruhr              #
                  #                       Germany                       #
                  #                                                     #
                  #                  All rights reserved                #
                  #                        -***-                        #
                  #######################################################


                         Program Version 4.0.0 -  RELEASE  -


 With contributions from (in alphabetic order):
   Daniel Aravena         : Magnetic Properties
   Michael Atanasov       : Ab Initio Ligand Field Theory
   Ute Becker             : Parallelization
   Martin Brehm           : Molecular dynamics
   Dmytro Bykov           : SCF Hessian
   Vijay G. Chilkuri      : MRCI spin determinant printing
   Dipayan Datta          : RHF DLPNO-CCSD density
   Achintya Kumar Dutta   : EOM-CC, STEOM-CC
   Dmitry Ganyushin       : Spin-Orbit,Spin-Spin,Magnetic field MRCI
   Yang Guo               : DLPNO-NEVPT2, CIM, IAO-localization
   Andreas Hansen         : Spin unrestricted coupled pair/coupled cluster methods
   Lee Huntington         : MR-EOM, pCC
   Robert Izsak           : Overlap fitted RIJCOSX, COSX-SCS-MP3, EOM
   Christian Kollmar      : KDIIS, OOCD, Brueckner-CCSD(T), CCSD density
   Simone Kossmann        : Meta GGA functionals, TD-DFT gradient, OOMP2, MP2 Hessian
   Martin Krupicka        : AUTO-CI
   Dagmar Lenk            : GEPOL surface
   Dimitrios Liakos       : Extrapolation schemes; parallel MDCI
   Dimitrios Manganas     : ROCIS; embedding schemes
   Dimitrios Pantazis     : SARC Basis sets
   Taras Petrenko         : DFT Hessian,TD-DFT gradient, ASA, ECA, R-Raman, ABS, FL, XAS/XES, NRVS
   Peter Pinski           : DLPNO-MP2
   Christoph Reimann      : Effective Core Potentials
   Marius Retegan         : Local ZFS, SOC
   Christoph Riplinger    : Optimizer, TS searches, QM/MM, DLPNO-CCSD(T), (RO)-DLPNO pert. Triples
   Tobias Risthaus        : Range-separated hybrids, TD-DFT gradient, RPA, STAB
   Michael Roemelt        : Restricted open shell CIS
   Masaaki Saitow         : Open-shell DLPNO
   Barbara Sandhoefer     : DKH picture change effects
   Kantharuban Sivalingam : CASSCF convergence, NEVPT2, FIC-MRCI
   Georgi Stoychev        : AutoAux
   Boris Wezisla          : Elementary symmetry handling
   Frank Wennmohs         : Technical directorship


 We gratefully acknowledge several colleagues who have allowed us to
 interface, adapt or use parts of their codes:
   Stefan Grimme, W. Hujo, H. Kruse,             : VdW corrections, initial TS optimization,
                  C. Bannwarth                     DFT functionals, gCP, sTDA/sTD-DF
   Ed Valeev                                     : LibInt (2-el integral package), F12 methods
   Garnet Chan, S. Sharma, J. Yang, R. Olivares  : DMRG
   Ulf Ekstrom                                   : XCFun DFT Library
   Mihaly Kallay                                 : mrcc  (arbitrary order and MRCC methods)
   Jiri Pittner, Ondrej Demel                    : Mk-CCSD
   Frank Weinhold                                : gennbo (NPA and NBO analysis)
   Christopher J. Cramer and Donald G. Truhlar   : smd solvation model


 Your calculation uses the libint2 library for the computation of 2-el integrals
 For citations please refer to: http://libint.valeyev.net

 This ORCA versions uses:
   CBLAS   interface :  Fast vector & matrix operations
   LAPACKE interface :  Fast linear algebra routines
   SCALAPACK package :  Parallel linear algebra routines


Your calculation utilizes the basis: cc-pVDZ 
       H, B-Ne : Obtained from the ccRepo (grant-hill.group.shef.ac.uk/ccrepo) Feb. 2017
                 T. H. Dunning, Jr., J. Chem. Phys. 90, 1007 (1989)
            He : Obtained from the ccRepo (grant-hill.group.shef.ac.uk/ccrepo) Feb. 2017
                 D. E. Woon, T. H. Dunning, Jr., J. Chem. Phys. 100, 2975 (1994)
  Li-Be, Na-Mg : Obtained from the ccRepo (grant-hill.group.shef.ac.uk/ccrepo) Feb. 2017
                 B. P. Prascher, D. E. Woon, K. A. Peterson, T. H. Dunning, Jr., A. K. Wilson, Theor. Chem. Acc. 128, 69 (2011)
         Al-Ar : Obtained from the ccRepo (grant-hill.group.shef.ac.uk/ccrepo) Feb. 2017
                 D. E. Woon, T. H. Dunning, Jr., J. Chem. Phys. 98, 1358 (1993)
            Ca : Obtained from the Peterson Research Group Website (tyr0.chem.wsu.edu/~kipeters) Feb. 2017
                 J. Koput, K. A. Peterson, J. Phys. Chem. 106, 9595 (2002)
         Sc-Zn : Obtained from the ccRepo (grant-hill.group.shef.ac.uk/ccrepo) Feb. 2017
                 N. B. Balabanov, K. A. Peterson, J. Chem. Phys. 123, 064107 (2005)
                 N. B. Balabanov, K. A. Peterson, J. Chem. Phys. 125, 074110 (2006)
         Ga-Kr : Obtained from the ccRepo (grant-hill.group.shef.ac.uk/ccrepo) Feb. 2017
                 A. K. Wilson, D. E. Woon, K. A. Peterson, T. H. Dunning, Jr., J. Chem. Phys. 110, 7667 (1999)

Your calculation utilizes the auxiliary basis: cc-pVDZ/C 
  H-He, B, Ne, Al-Ar, Ga-Br : Obtained from the EMSL Basis Set Exchange (bse.pnl.gov) Feb. 2017
                              F. Weigend, A. Kohn, C. Hattig, J. Chem. Phys. 116, 3175 (2002)
               Li-Be, Na-Mg : Obtained from the EMSL Basis Set Exchange (bse.pnl.gov) Feb. 2017
                              C. Haettig, Phys. Chem. Chem. Phys. 7, 59 (2005)
                        C-F : Obtained from the EMSL Basis Set Exchange (bse.pnl.gov) Feb. 2017
                              C. Haettig, Phys. Chem. Chem. Phys. 7, 59 (2005)
                              F. Weigend, A. Kohn, C. Hattig, J. Chem. Phys. 116, 3175 (2002)
                         Kr : Obtained from the TURBOMOLE 7.0 basis set library
                              F. Weigend, A. Kohn, C. Hattig, J. Chem. Phys. 116, 3175 (2002)
                              S function revised in Sep. 2009

================================================================================
                                        WARNINGS
                       Please study these warnings very carefully!
================================================================================


WARNING: Geometry optimizations can change the point-group symmetry!

Warning: TCutStore was < 0. Adjusted to Thresh (uncritical)

WARNING: The frozen-core approximation for MP2-gradient calculations is turned on by default.

WARNING: Geometry Optimization
  ===> : Switching off AutoStart
         For restart on a previous wavefunction, please use MOREAD

WARNING: Post HF methods need fully converged wavefunctions
  ===> : Setting SCFConvForced true
         You can overwrite this default with %scf ConvForced false 


INFO   : the flag for use of LIBINT has been found!

================================================================================
                                       INPUT FILE
================================================================================
NAME = /home/vladimir/Quantum_Chemistry/ORCA/C8H8/cubane/optimize/MP2/cc-pVDZ-RI_sym/./cubane.inp
|  1> # ================================================================
|  2> # Orca input file for cubane RI-MP2/cc-pVDZ geometry optimization
|  3> # ================================================================
|  4> ! RHF RI-MP2 cc-pVDZ cc-pVDZ/C TightSCF TightOPT UseSym
|  5> ! PAL4
|  6> 
|  7> * xyz 0 1
|  8>   H      -1.423     -1.423     -1.423
|  9>   C      -0.788     -0.788     -0.788
| 10>   H      -1.423     -1.423      1.423
| 11>   C      -0.788     -0.788      0.788
| 12>   H      -1.423      1.423     -1.423
| 13>   C      -0.788      0.788     -0.788
| 14>   H       1.423     -1.423     -1.423
| 15>   C       0.788     -0.788     -0.788
| 16>   H      -1.423      1.423      1.423
| 17>   C      -0.788      0.788      0.788
| 18>   H       1.423     -1.423      1.423
| 19>   C       0.788     -0.788      0.788
| 20>   H       1.423      1.423     -1.423
| 21>   C       0.788      0.788     -0.788
| 22>   H       1.423      1.423      1.423
| 23>   C       0.788      0.788      0.788
| 24> *
| 25> 
| 26>                          ****END OF INPUT****
================================================================================

------------------------------------------------------------------------------
                            SYMMETRY HANDLING SETUP
------------------------------------------------------------------------------

------------------
SYMMETRY DETECTION
------------------
Preparing Data                    ... done
Detection Threshold:    SymThresh ... 1.0000e-04

Point Group will now be determined:
Moving molecule to center of mass ... done

POINT GROUP                       ... Oh

The coordinates will now be cleaned:
Moving to standard coord frame    ... done
(Changed one of the main axes to z and another to x)
Structure cleanup requested       ... yes
Selected point group              ... Oh
Cleaning Tolerance      SymThresh ... 1.0000e-04

Some missing point group data is constructed:
Constructing symmetry operations  ... done
Creating atom transfer table      ... done
Creating asymmetric unit          ... done

Cleaning coordinates              ... done

-----------------------------------------------
SYMMETRY-PERFECTED CARTESIAN COORDINATES (A.U.)
-----------------------------------------------
   0 H    -2.68908029   2.68908029   2.68908029 
   1 C    -1.48910419   1.48910419   1.48910419 
   2 H    -2.68908029  -2.68908029   2.68908029 
   3 C    -1.48910419  -1.48910419   1.48910419 
   4 H     2.68908029   2.68908029   2.68908029 
   5 C     1.48910419   1.48910419   1.48910419 
   6 H    -2.68908029   2.68908029  -2.68908029 
   7 C    -1.48910419   1.48910419  -1.48910419 
   8 H     2.68908029  -2.68908029   2.68908029 
   9 C     1.48910419  -1.48910419   1.48910419 
  10 H    -2.68908029  -2.68908029  -2.68908029 
  11 C    -1.48910419  -1.48910419  -1.48910419 
  12 H     2.68908029   2.68908029  -2.68908029 
  13 C     1.48910419   1.48910419  -1.48910419 
  14 H     2.68908029  -2.68908029  -2.68908029 
  15 C     1.48910419  -1.48910419  -1.48910419 

------------------
SYMMETRY REDUCTION
------------------
ORCA supports only abelian point groups.
It is now checked, if the determined point group is supported:
Point Group ( Oh    ) is          ... NOT supported
Reducing to abelian subgroup      ... D2h

(Re)building abelian point group:
Creating Character Table          ... done
Making direct product table       ... done
Constructing symmetry operations  ... done
Creating atom transfer table      ... done
Creating asymmetric unit          ... done

----------------------
ASYMMETRIC UNIT IN D2h
----------------------
  #  AT     MASS              COORDS (A.U.)             BAS
   0 H    1.0080  -2.68908029   2.68908029   2.68908029   0
   1 C   12.0110  -1.48910419   1.48910419   1.48910419   0

----------------------
SYMMETRY ADAPTED BASIS
----------------------
The coefficients for the symmetry adapted linear combinations (SALCS)
of basis functions will now be computed:
Number of basis functions         ...   152
Preparing memory                  ... done
Constructing Gamma(red)           ... done
Reducing Gamma(red)               ... done
Constructing SALCs                ... done
Checking SALC integrity           ... nothing suspicious
Normalizing SALCs                 ... done

Storing the symmetry object:
Symmetry file                     ... /home/vladimir/Quantum_Chemistry/ORCA/C8H8/cubane/optimize/MP2/cc-pVDZ-RI_sym/./cubane.sym.tmp
Writing symmetry information      ... done

                       *****************************
                       * Geometry Optimization Run *
                       *****************************

Geometry optimization settings:
Update method            Update   .... BFGS
Choice of coordinates    CoordSys .... Redundant Internals
Initial Hessian          InHess   .... Almoef's Model

Convergence Tolerances:
Energy Change            TolE     ....  1.0000e-06 Eh
Max. Gradient            TolMAXG  ....  1.0000e-04 Eh/bohr
RMS Gradient             TolRMSG  ....  3.0000e-05 Eh/bohr
Max. Displacement        TolMAXD  ....  1.0000e-03 bohr
RMS Displacement         TolRMSD  ....  6.0000e-04 bohr

------------------------------------------------------------------------------
                        ORCA OPTIMIZATION COORDINATE SETUP
------------------------------------------------------------------------------

The optimization will be done in new redundant internal coordinates
Making redundant internal coordinates   ...  (new redundants) done
Evaluating the initial hessian          ...  (Almloef) done
Evaluating the coordinates              ...  done
Calculating the B-matrix                .... done
Calculating the G-matrix                .... done
Diagonalizing the G-matrix              .... done
The first mode is                       ....  134
The number of degrees of freedom        ....   42

    -----------------------------------------------------------------
                    Redundant Internal Coordinates


    -----------------------------------------------------------------
         Definition                    Initial Value    Approx d2E/dq
    -----------------------------------------------------------------
      1. B(C   1,H   0)                  1.0999         0.347300   
      2. B(C   3,H   2)                  1.0999         0.347300   
      3. B(C   3,C   1)                  1.5760         0.315491   
      4. B(C   5,H   4)                  1.0999         0.347300   
      5. B(C   5,C   1)                  1.5760         0.315491   
      6. B(C   7,H   6)                  1.0999         0.347300   
      7. B(C   7,C   1)                  1.5760         0.315491   
      8. B(C   9,H   8)                  1.0999         0.347300   
      9. B(C   9,C   5)                  1.5760         0.315491   
     10. B(C   9,C   3)                  1.5760         0.315491   
     11. B(C  11,H  10)                  1.0999         0.347300   
     12. B(C  11,C   7)                  1.5760         0.315491   
     13. B(C  11,C   3)                  1.5760         0.315491   
     14. B(C  13,C   7)                  1.5760         0.315491   
     15. B(C  13,C   5)                  1.5760         0.315491   
     16. B(C  13,H  12)                  1.0999         0.347300   
     17. B(C  15,H  14)                  1.0999         0.347300   
     18. B(C  15,C  13)                  1.5760         0.315491   
     19. B(C  15,C  11)                  1.5760         0.315491   
     20. B(C  15,C   9)                  1.5760         0.315491   
     21. A(H   0,C   1,C   3)          125.2644         0.313640   
     22. A(H   0,C   1,C   7)          125.2644         0.313640   
     23. A(C   3,C   1,C   5)           90.0000         0.343147   
     24. A(H   0,C   1,C   5)          125.2644         0.313640   
     25. A(C   5,C   1,C   7)           90.0000         0.343147   
     26. A(C   3,C   1,C   7)           90.0000         0.343147   
     27. A(C   1,C   3,C  11)           90.0000         0.343147   
     28. A(C   1,C   3,C   9)           90.0000         0.343147   
     29. A(C   1,C   3,H   2)          125.2644         0.313640   
     30. A(H   2,C   3,C  11)          125.2644         0.313640   
     31. A(C   9,C   3,C  11)           90.0000         0.343147   
     32. A(H   2,C   3,C   9)          125.2644         0.313640   
     33. A(H   4,C   5,C  13)          125.2644         0.313640   
     34. A(C   9,C   5,C  13)           90.0000         0.343147   
     35. A(H   4,C   5,C   9)          125.2644         0.313640   
     36. A(C   1,C   5,C  13)           90.0000         0.343147   
     37. A(C   1,C   5,C   9)           90.0000         0.343147   
     38. A(C   1,C   5,H   4)          125.2644         0.313640   
     39. A(C  11,C   7,C  13)           90.0000         0.343147   
     40. A(C   1,C   7,C  13)           90.0000         0.343147   
     41. A(H   6,C   7,C  11)          125.2644         0.313640   
     42. A(C   1,C   7,C  11)           90.0000         0.343147   
     43. A(C   1,C   7,H   6)          125.2644         0.313640   
     44. A(H   6,C   7,C  13)          125.2644         0.313640   
     45. A(C   3,C   9,H   8)          125.2644         0.313640   
     46. A(C   3,C   9,C   5)           90.0000         0.343147   
     47. A(H   8,C   9,C  15)          125.2644         0.313640   
     48. A(C   5,C   9,C  15)           90.0000         0.343147   
     49. A(C   3,C   9,C  15)           90.0000         0.343147   
     50. A(C   5,C   9,H   8)          125.2644         0.313640   
     51. A(C   7,C  11,H  10)          125.2644         0.313640   
     52. A(C   3,C  11,H  10)          125.2644         0.313640   
     53. A(C   3,C  11,C   7)           90.0000         0.343147   
     54. A(H  10,C  11,C  15)          125.2644         0.313640   
     55. A(C   7,C  11,C  15)           90.0000         0.343147   
     56. A(C   3,C  11,C  15)           90.0000         0.343147   
     57. A(C   5,C  13,C   7)           90.0000         0.343147   
     58. A(H  12,C  13,C  15)          125.2644         0.313640   
     59. A(C   7,C  13,C  15)           90.0000         0.343147   
     60. A(C   5,C  13,C  15)           90.0000         0.343147   
     61. A(C   7,C  13,H  12)          125.2644         0.313640   
     62. A(C   5,C  13,H  12)          125.2644         0.313640   
     63. A(C  13,C  15,H  14)          125.2644         0.313640   
     64. A(C  11,C  15,H  14)          125.2644         0.313640   
     65. A(C   9,C  15,H  14)          125.2644         0.313640   
     66. A(C  11,C  15,C  13)           90.0000         0.343147   
     67. A(C   9,C  15,C  13)           90.0000         0.343147   
     68. A(C   9,C  15,C  11)           90.0000         0.343147   
     69. D(C   9,C   3,C   1,C   5)      0.0000         0.008186   
     70. D(C  11,C   3,C   1,C   5)    -90.0000         0.008186   
     71. D(H   2,C   3,C   1,C   5)    135.0000         0.008186   
     72. D(H   2,C   3,C   1,C   7)   -135.0000         0.008186   
     73. D(C  11,C   3,C   1,C   7)      0.0000         0.008186   
     74. D(C   9,C   3,C   1,H   0)   -135.0000         0.008186   
     75. D(C   9,C   3,C   1,C   7)     90.0000         0.008186   
     76. D(H   2,C   3,C   1,H   0)      0.0000         0.008186   
     77. D(C  11,C   3,C   1,H   0)    135.0000         0.008186   
     78. D(H   4,C   5,C   1,C   3)   -135.0000         0.008186   
     79. D(H   4,C   5,C   1,C   7)    135.0000         0.008186   
     80. D(H   4,C   5,C   1,H   0)      0.0000         0.008186   
     81. D(C  13,C   5,C   1,C   3)     90.0000         0.008186   
     82. D(C   9,C   5,C   1,H   0)    135.0000         0.008186   
     83. D(C  13,C   5,C   1,C   7)      0.0000         0.008186   
     84. D(C   9,C   5,C   1,C   7)    -90.0000         0.008186   
     85. D(C  13,C   5,C   1,H   0)   -135.0000         0.008186   
     86. D(C   9,C   5,C   1,C   3)      0.0000         0.008186   
     87. D(C  11,C   7,C   1,C   5)     90.0000         0.008186   
     88. D(H   6,C   7,C   1,C   5)   -135.0000         0.008186   
     89. D(C  13,C   7,C   1,H   0)    135.0000         0.008186   
     90. D(C  11,C   7,C   1,C   3)      0.0000         0.008186   
     91. D(H   6,C   7,C   1,C   3)    135.0000         0.008186   
     92. D(C  13,C   7,C   1,C   3)    -90.0000         0.008186   
     93. D(H   6,C   7,C   1,H   0)      0.0000         0.008186   
     94. D(C  13,C   7,C   1,C   5)      0.0000         0.008186   
     95. D(C  11,C   7,C   1,H   0)   -135.0000         0.008186   
     96. D(C   5,C   9,C   3,C   1)      0.0000         0.008186   
     97. D(H   8,C   9,C   3,C   1)    135.0000         0.008186   
     98. D(C  15,C   9,C   5,C  13)      0.0000         0.008186   
     99. D(C  15,C   9,C   5,H   4)   -135.0000         0.008186   
    100. D(H   8,C   9,C   5,C  13)    135.0000         0.008186   
    101. D(H   8,C   9,C   5,H   4)      0.0000         0.008186   
    102. D(H   8,C   9,C   5,C   1)   -135.0000         0.008186   
    103. D(C   5,C   9,C   3,C  11)     90.0000         0.008186   
    104. D(C  15,C   9,C   3,H   2)    135.0000         0.008186   
    105. D(C   3,C   9,C   5,C   1)      0.0000         0.008186   
    106. D(C  15,C   9,C   3,C  11)      0.0000         0.008186   
    107. D(C   3,C   9,C   5,C  13)    -90.0000         0.008186   
    108. D(C  15,C   9,C   3,C   1)    -90.0000         0.008186   
    109. D(H   8,C   9,C   3,C  11)   -135.0000         0.008186   
    110. D(C  15,C   9,C   5,C   1)     90.0000         0.008186   
    111. D(H   8,C   9,C   3,H   2)      0.0000         0.008186   
    112. D(C   3,C   9,C   5,H   4)    135.0000         0.008186   
    113. D(C   5,C   9,C   3,H   2)   -135.0000         0.008186   
    114. D(C  15,C  11,C   7,H   6)    135.0000         0.008186   
    115. D(C  15,C  11,C   7,C   1)    -90.0000         0.008186   
    116. D(H  10,C  11,C   7,C  13)   -135.0000         0.008186   
    117. D(H  10,C  11,C   7,C   1)    135.0000         0.008186   
    118. D(C   3,C  11,C   7,C  13)     90.0000         0.008186   
    119. D(C   3,C  11,C   7,H   6)   -135.0000         0.008186   
    120. D(C   3,C  11,C   7,C   1)      0.0000         0.008186   
    121. D(C  15,C  11,C   3,C   9)      0.0000         0.008186   
    122. D(C  15,C  11,C   3,C   1)     90.0000         0.008186   
    123. D(H  10,C  11,C   3,C   1)   -135.0000         0.008186   
    124. D(C   7,C  11,C   3,C   9)    -90.0000         0.008186   
    125. D(C   7,C  11,C   3,H   2)    135.0000         0.008186   
    126. D(H  10,C  11,C   7,H   6)      0.0000         0.008186   
    127. D(C   7,C  11,C   3,C   1)      0.0000         0.008186   
    128. D(H  10,C  11,C   3,H   2)      0.0000         0.008186   
    129. D(H  10,C  11,C   3,C   9)    135.0000         0.008186   
    130. D(C  15,C  11,C   7,C  13)      0.0000         0.008186   
    131. D(C  15,C  11,C   3,H   2)   -135.0000         0.008186   
    132. D(C  15,C  13,C   7,C  11)      0.0000         0.008186   
    133. D(C  15,C  13,C   7,H   6)   -135.0000         0.008186   
    134. D(H  12,C  13,C   7,C  11)    135.0000         0.008186   
    135. D(H  12,C  13,C   7,H   6)      0.0000         0.008186   
    136. D(H  12,C  13,C   7,C   1)   -135.0000         0.008186   
    137. D(C   5,C  13,C   7,H   6)    135.0000         0.008186   
    138. D(C   5,C  13,C   7,C   1)      0.0000         0.008186   
    139. D(C  15,C  13,C   5,C   9)      0.0000         0.008186   
    140. D(C  15,C  13,C   5,H   4)    135.0000         0.008186   
    141. D(C  15,C  13,C   5,C   1)    -90.0000         0.008186   
    142. D(C   5,C  13,C   7,C  11)    -90.0000         0.008186   
    143. D(H  12,C  13,C   5,C   9)   -135.0000         0.008186   
    144. D(H  12,C  13,C   5,H   4)      0.0000         0.008186   
    145. D(H  12,C  13,C   5,C   1)    135.0000         0.008186   
    146. D(C  15,C  13,C   7,C   1)     90.0000         0.008186   
    147. D(C   7,C  13,C   5,C   9)     90.0000         0.008186   
    148. D(C   7,C  13,C   5,H   4)   -135.0000         0.008186   
    149. D(C   7,C  13,C   5,C   1)      0.0000         0.008186   
    150. D(H  14,C  15,C  13,H  12)      0.0000         0.008186   
    151. D(H  14,C  15,C  13,C   5)   -135.0000         0.008186   
    152. D(C  11,C  15,C  13,H  12)   -135.0000         0.008186   
    153. D(C  11,C  15,C  13,C   7)      0.0000         0.008186   
    154. D(C   9,C  15,C  13,H  12)    135.0000         0.008186   
    155. D(C   9,C  15,C  13,C   7)    -90.0000         0.008186   
    156. D(C   9,C  15,C  13,C   5)      0.0000         0.008186   
    157. D(H  14,C  15,C  11,H  10)      0.0000         0.008186   
    158. D(H  14,C  15,C  11,C   7)   -135.0000         0.008186   
    159. D(H  14,C  15,C  11,C   3)    135.0000         0.008186   
    160. D(C  13,C  15,C  11,H  10)    135.0000         0.008186   
    161. D(C  13,C  15,C  11,C   7)      0.0000         0.008186   
    162. D(C  13,C  15,C  11,C   3)    -90.0000         0.008186   
    163. D(C   9,C  15,C  11,H  10)   -135.0000         0.008186   
    164. D(C   9,C  15,C  11,C   7)     90.0000         0.008186   
    165. D(C   9,C  15,C  11,C   3)      0.0000         0.008186   
    166. D(H  14,C  15,C   9,H   8)      0.0000         0.008186   
    167. D(H  14,C  15,C   9,C   5)    135.0000         0.008186   
    168. D(H  14,C  15,C   9,C   3)   -135.0000         0.008186   
    169. D(C  13,C  15,C   9,H   8)   -135.0000         0.008186   
    170. D(C  11,C  15,C  13,C   5)     90.0000         0.008186   
    171. D(C  13,C  15,C   9,C   5)      0.0000         0.008186   
    172. D(C  13,C  15,C   9,C   3)     90.0000         0.008186   
    173. D(C  11,C  15,C   9,H   8)    135.0000         0.008186   
    174. D(H  14,C  15,C  13,C   7)    135.0000         0.008186   
    175. D(C  11,C  15,C   9,C   5)    -90.0000         0.008186   
    176. D(C  11,C  15,C   9,C   3)      0.0000         0.008186   
    -----------------------------------------------------------------

Number of atoms                         .... 16
Number of degrees of freedom            .... 176

         *************************************************************
         *                GEOMETRY OPTIMIZATION CYCLE   1            *
         *************************************************************
---------------------------------
CARTESIAN COORDINATES (ANGSTROEM)
---------------------------------
  H     -1.423000    1.423000    1.423000
  C     -0.788000    0.788000    0.788000
  H     -1.423000   -1.423000    1.423000
  C     -0.788000   -0.788000    0.788000
  H      1.423000    1.423000    1.423000
  C      0.788000    0.788000    0.788000
  H     -1.423000    1.423000   -1.423000
  C     -0.788000    0.788000   -0.788000
  H      1.423000   -1.423000    1.423000
  C      0.788000   -0.788000    0.788000
  H     -1.423000   -1.423000   -1.423000
  C     -0.788000   -0.788000   -0.788000
  H      1.423000    1.423000   -1.423000
  C      0.788000    0.788000   -0.788000
  H      1.423000   -1.423000   -1.423000
  C      0.788000   -0.788000   -0.788000

----------------------------
CARTESIAN COORDINATES (A.U.)
----------------------------
  NO LB      ZA    FRAG     MASS         X           Y           Z
   0 H     1.0000    0     1.008   -2.689080    2.689080    2.689080
   1 C     6.0000    0    12.011   -1.489104    1.489104    1.489104
   2 H     1.0000    0     1.008   -2.689080   -2.689080    2.689080
   3 C     6.0000    0    12.011   -1.489104   -1.489104    1.489104
   4 H     1.0000    0     1.008    2.689080    2.689080    2.689080
   5 C     6.0000    0    12.011    1.489104    1.489104    1.489104
   6 H     1.0000    0     1.008   -2.689080    2.689080   -2.689080
   7 C     6.0000    0    12.011   -1.489104    1.489104   -1.489104
   8 H     1.0000    0     1.008    2.689080   -2.689080    2.689080
   9 C     6.0000    0    12.011    1.489104   -1.489104    1.489104
  10 H     1.0000    0     1.008   -2.689080   -2.689080   -2.689080
  11 C     6.0000    0    12.011   -1.489104   -1.489104   -1.489104
  12 H     1.0000    0     1.008    2.689080    2.689080   -2.689080
  13 C     6.0000    0    12.011    1.489104    1.489104   -1.489104
  14 H     1.0000    0     1.008    2.689080   -2.689080   -2.689080
  15 C     6.0000    0    12.011    1.489104   -1.489104   -1.489104

--------------------------------
INTERNAL COORDINATES (ANGSTROEM)
--------------------------------
 H      0   0   0     0.000000000000     0.00000000     0.00000000
 C      1   0   0     1.099852262806     0.00000000     0.00000000
 H      2   1   0     2.386413836701   103.15923744     0.00000000
 C      3   2   1     1.099852262806    32.63045807   180.00000000
 H      2   1   3     2.386413836701   103.15923744   240.00000000
 C      5   2   1     1.099852262806    32.63045807   180.00000000
 H      2   1   3     2.386413836701   103.15923744   120.00000000
 C      7   2   1     1.099852262806    32.63045807   180.00000000
 H      4   3   2     2.386413836701   103.15923744   120.00000000
 C      9   4   3     1.099852262806    32.63045807   180.00000000
 H      4   3   2     2.386413836701   103.15923744   240.00000000
 C     11   4   3     1.099852262806    32.63045807   180.00000000
 H      6   5   2     2.386413836701   103.15923744   120.00000000
 C     13   6   5     1.099852262806    32.63045807   180.00000000
 H     10   9   4     2.386413836701   103.15923744   240.00000000
 C     15  10   9     1.099852262806    32.63045807   180.00000000

---------------------------
INTERNAL COORDINATES (A.U.)
---------------------------
 H      0   0   0     0.000000000000     0.00000000     0.00000000
 C      1   0   0     2.078419564477     0.00000000     0.00000000
 H      2   1   0     4.509668593566   103.15923744     0.00000000
 C      3   2   1     2.078419564477    32.63045807   180.00000000
 H      2   1   3     4.509668593566   103.15923744   240.00000000
 C      5   2   1     2.078419564477    32.63045807   180.00000000
 H      2   1   3     4.509668593566   103.15923744   120.00000000
 C      7   2   1     2.078419564477    32.63045807   180.00000000
 H      4   3   2     4.509668593566   103.15923744   120.00000000
 C      9   4   3     2.078419564477    32.63045807   180.00000000
 H      4   3   2     4.509668593566   103.15923744   240.00000000
 C     11   4   3     2.078419564477    32.63045807   180.00000000
 H      6   5   2     4.509668593566   103.15923744   120.00000000
 C     13   6   5     2.078419564477    32.63045807   180.00000000
 H     10   9   4     4.509668593566   103.15923744   240.00000000
 C     15  10   9     2.078419564477    32.63045807   180.00000000

---------------------
BASIS SET INFORMATION
---------------------
There are 2 groups of distinct atoms

 Group   1 Type H   : 4s1p contracted to 2s1p pattern {31/1}
 Group   2 Type C   : 17s4p1d contracted to 3s2p1d pattern {881/31/1}

Atom   0H    basis set group =>   1
Atom   1C    basis set group =>   2
Atom   2H    basis set group =>   1
Atom   3C    basis set group =>   2
Atom   4H    basis set group =>   1
Atom   5C    basis set group =>   2
Atom   6H    basis set group =>   1
Atom   7C    basis set group =>   2
Atom   8H    basis set group =>   1
Atom   9C    basis set group =>   2
Atom  10H    basis set group =>   1
Atom  11C    basis set group =>   2
Atom  12H    basis set group =>   1
Atom  13C    basis set group =>   2
Atom  14H    basis set group =>   1
Atom  15C    basis set group =>   2

INFORMATION: There is an auxiliary basis set but the global RI flag is NOT set

-------------------------------
AUXILIARY BASIS SET INFORMATION
-------------------------------
There are 2 groups of distinct atoms

 Group   1 Type H   : 3s2p1d contracted to 3s2p1d pattern {111/11/1}
 Group   2 Type C   : 7s5p4d2f contracted to 7s5p4d2f pattern {1111111/11111/1111/11}

Atom   0H    basis set group =>   1
Atom   1C    basis set group =>   2
Atom   2H    basis set group =>   1
Atom   3C    basis set group =>   2
Atom   4H    basis set group =>   1
Atom   5C    basis set group =>   2
Atom   6H    basis set group =>   1
Atom   7C    basis set group =>   2
Atom   8H    basis set group =>   1
Atom   9C    basis set group =>   2
Atom  10H    basis set group =>   1
Atom  11C    basis set group =>   2
Atom  12H    basis set group =>   1
Atom  13C    basis set group =>   2
Atom  14H    basis set group =>   1
Atom  15C    basis set group =>   2


           ************************************************************
           *        Program running with 4 parallel MPI-processes     *
           *              working on a common directory               *
           ************************************************************
------------------------------------------------------------------------------
                           ORCA GTO INTEGRAL CALCULATION
------------------------------------------------------------------------------

                         BASIS SET STATISTICS AND STARTUP INFO

 # of primitive gaussian shells          ...  216
 # of primitive gaussian functions       ...  328
 # of contracted shells                  ...   72
 # of contracted basis functions         ...  152
 Highest angular momentum                ...    2
 Maximum contraction depth               ...    8
 Integral package used                   ... LIBINT
 Integral threshhold            Thresh   ...  2.500e-11
 Primitive cut-off              TCut     ...  2.500e-12


------------------------------ INTEGRAL EVALUATION ----------------------------


 * One electron integrals 
 Pre-screening matrix                    ... done
 Shell pair data                         ... done (   0.001 sec)



           ************************************************************
           *        Program running with 4 parallel MPI-processes     *
           *              working on a common directory               *
           ************************************************************
-------------------------------------------------------------------------------
                                 ORCA SCF
-------------------------------------------------------------------------------

------------
SCF SETTINGS
------------
Hamiltonian:
 Ab initio Hamiltonian  Method          .... Hartree-Fock(GTOs)


General Settings:
 Integral files         IntName         .... /home/vladimir/Quantum_Chemistry/ORCA/C8H8/cubane/optimize/MP2/cc-pVDZ-RI_sym/./cubane
 Hartree-Fock type      HFTyp           .... RHF
 Total Charge           Charge          ....    0
 Multiplicity           Mult            ....    1
 Number of Electrons    NEL             ....   56
 Basis Dimension        Dim             ....  152
 Nuclear Repulsion      ENuc            ....    365.3173763557 Eh

 Symmetry handling      UseSym         .... ON
 Point group                           .... D2h
 Used point group                      .... D2h
 Number of irreps                      .... 8
   Irrep   Ag has   19 symmetry adapted basis functions (ofs=   0)
   Irrep  B1g has   19 symmetry adapted basis functions (ofs=  19)
   Irrep  B2g has   19 symmetry adapted basis functions (ofs=  38)
   Irrep  B3g has   19 symmetry adapted basis functions (ofs=  57)
   Irrep   Au has   19 symmetry adapted basis functions (ofs=  76)
   Irrep  B1u has   19 symmetry adapted basis functions (ofs=  95)
   Irrep  B2u has   19 symmetry adapted basis functions (ofs= 114)
   Irrep  B3u has   19 symmetry adapted basis functions (ofs= 133)

Convergence Acceleration:
 DIIS                   CNVDIIS         .... on
   Start iteration      DIISMaxIt       ....    12
   Startup error        DIISStart       ....  0.200000
   # of expansion vecs  DIISMaxEq       ....     5
   Bias factor          DIISBfac        ....   1.050
   Max. coefficient     DIISMaxC        ....  10.000
 Newton-Raphson         CNVNR           .... off
 SOSCF                  CNVSOSCF        .... on
   Start iteration      SOSCFMaxIt      ....   150
   Startup grad/error   SOSCFStart      ....  0.003300
 Level Shifting         CNVShift        .... on
   Level shift para.    LevelShift      ....    0.2500
   Turn off err/grad.   ShiftErr        ....    0.0010
 Zerner damping         CNVZerner       .... off
 Static damping         CNVDamp         .... on
   Fraction old density DampFac         ....    0.7000
   Max. Damping (<1)    DampMax         ....    0.9800
   Min. Damping (>=0)   DampMin         ....    0.0000
   Turn off err/grad.   DampErr         ....    0.1000
 Fernandez-Rico         CNVRico         .... off

SCF Procedure:
 Maximum # iterations   MaxIter         ....   125
 SCF integral mode      SCFMode         .... Direct
   Integral package                     .... LIBINT
 Reset frequeny         DirectResetFreq ....    20
 Integral Threshold     Thresh          ....  2.500e-11 Eh
 Primitive CutOff       TCut            ....  2.500e-12 Eh

Convergence Tolerance:
 Convergence Check Mode ConvCheckMode   .... Total+1el-Energy
 Convergence forced     ConvForced      .... 1
 Energy Change          TolE            ....  1.000e-08 Eh
 1-El. energy change                    ....  1.000e-05 Eh
 Orbital Gradient       TolG            ....  1.000e-05
 Orbital Rotation angle TolX            ....  1.000e-05
 DIIS Error             TolErr          ....  5.000e-07


Diagonalization of the overlap matrix:
Smallest eigenvalue                        ... 1.819e-04
Time for diagonalization                   ...    0.051 sec
Threshold for overlap eigenvalues          ... 1.000e-08
Number of eigenvalues below threshold      ... 0
Time for construction of square roots      ...    0.006 sec
Producing symmetrization matrix            ... done (   0.003 sec)
Total time needed                          ...    0.060 sec

-------------------
DFT GRID GENERATION
-------------------

General Integration Accuracy     IntAcc      ...  4.340
Radial Grid Type                 RadialGrid  ... Gauss-Chebyshev
Angular Grid (max. acc.)         AngularGrid ... Lebedev-110
Angular grid pruning method      GridPruning ... 3 (G Style)
Weight generation scheme         WeightScheme... Becke
Basis function cutoff            BFCut       ...    1.0000e-11
Integration weight cutoff        WCut        ...    1.0000e-14
Grids for H and He will be reduced by one unit

# of grid points (after initial pruning)     ...  19600 (   0.0 sec)
# of grid points (after weights+screening)   ...  17600 (   0.0 sec)
nearest neighbour list constructed           ...    0.0 sec
Grid point re-assignment to atoms done       ...    0.0 sec
Grid point division into batches done        ...    0.0 sec
Reduced shell lists constructed in    0.0 sec

Total number of grid points                  ...    17600
Total number of batches                      ...      288
Average number of points per batch           ...       61
Average number of grid points per atom       ...     1100
Average number of shells per batch           ...    63.37 (88.01%)
Average number of basis functions per batch  ...   132.47 (87.15%)
Average number of large shells per batch     ...    51.63 (81.47%)
Average number of large basis fcns per batch ...   108.95 (82.24%)
Maximum spatial batch extension              ...  20.34, 17.47, 20.16 au
Average spatial batch extension              ...   0.91,  0.96,  0.88 au

Time for grid setup =    0.098 sec

------------------------------
INITIAL GUESS: MODEL POTENTIAL
------------------------------
Loading Hartree-Fock densities                     ... done
Calculating cut-offs                               ... done
Setting up the integral package                    ... done
Initializing the effective Hamiltonian             ... done
Starting the Coulomb interaction                   ... done (   0.0 sec)
Reading the grid                                   ... done
Mapping shells                                     ... done
Starting the XC term evaluation                    ... done (   0.1 sec)
done (   0.0 sec)
Diagonalizing the Hamiltonian                      ... done (   0.0 sec)
Back transforming the eigenvectors                 ... done (   0.0 sec)
Now organizing SCF variables                       ... done
The symmetry of the initial guess is 1-Ag
Irrep occupations for operator 0
    Ag -    5
   B1g -    3
   B2g -    3
   B3g -    3
    Au -    2
   B1u -    4
   B2u -    4
   B3u -    4
                      ------------------
                      INITIAL GUESS DONE (   0.2 sec)
                      ------------------
--------------
SCF ITERATIONS
--------------
ITER       Energy         Delta-E        Max-DP      RMS-DP      [F,P]     Damp
               ***  Starting incremental Fock matrix formation  ***
  0   -307.1527946346   0.000000000000 0.03383062  0.00243102  0.0910069 0.7000
  1   -307.2440145030  -0.091219868430 0.01952909  0.00149896  0.0615595 0.7000
                               ***Turning on DIIS***
  2   -307.2968833802  -0.052868877188 0.04483003  0.00347813  0.0457096 0.0000
  3   -306.9643743985   0.332508981734 0.01268056  0.00106228  0.0171185 0.0000
  4   -307.6785489693  -0.714174570863 0.00290284  0.00020416  0.0055067 0.0000
                      *** Initiating the SOSCF procedure ***
                           *** Shutting down DIIS ***
                      *** Re-Reading the Fockian *** 
                      *** Removing any level shift *** 
ITER      Energy       Delta-E        Grad      Rot      Max-DP    RMS-DP
  5   -307.43361134   0.2449376258  0.000957  0.000957  0.001593  0.000093
               *** Restarting incremental Fock matrix formation ***
  6   -307.41311059   0.0205007500  0.000129  0.000145  0.000322  0.000016
  7   -307.41311108  -0.0000004891  0.000049  0.000094  0.000224  0.000011
  8   -307.41311114  -0.0000000545  0.000023  0.000017  0.000033  0.000002
  9   -307.41311115  -0.0000000081  0.000004  0.000004  0.000006  0.000000
                 **** Energy Check signals convergence ****
              ***Rediagonalizing the Fockian in SOSCF/NRSCF***

               *****************************************************
               *                     SUCCESS                       *
               *           SCF CONVERGED AFTER  10 CYCLES          *
               *****************************************************


----------------
TOTAL SCF ENERGY
----------------

Total Energy       :         -307.41311115 Eh           -8365.13603 eV

Components:
Nuclear Repulsion  :          365.31737636 Eh            9940.79119 eV
Electronic Energy  :         -672.73048751 Eh          -18305.92722 eV
One Electron Energy:        -1139.77126746 Eh          -31014.75295 eV
Two Electron Energy:          467.04077996 Eh           12708.82573 eV

Virial components:
Potential Energy   :         -614.44232332 Eh          -16719.82564 eV
Kinetic Energy     :          307.02921217 Eh            8354.68961 eV
Virial Ratio       :            2.00125037


---------------
SCF CONVERGENCE
---------------

  Last Energy change         ...   -6.9083e-09  Tolerance :   1.0000e-08
  Last MAX-Density change    ...    8.9578e-07  Tolerance :   1.0000e-07
  Last RMS-Density change    ...    4.6722e-08  Tolerance :   5.0000e-09
  Last Orbital Gradient      ...    2.0919e-07  Tolerance :   1.0000e-05
  Last Orbital Rotation      ...    4.0445e-07  Tolerance :   1.0000e-05

             **** THE GBW FILE WAS UPDATED (/home/vladimir/Quantum_Chemistry/ORCA/C8H8/cubane/optimize/MP2/cc-pVDZ-RI_sym/./cubane.gbw) ****
             **** DENSITY FILE WAS UPDATED (/home/vladimir/Quantum_Chemistry/ORCA/C8H8/cubane/optimize/MP2/cc-pVDZ-RI_sym/./cubane.scfp.tmp) ****
             **** ENERGY FILE WAS UPDATED (/home/vladimir/Quantum_Chemistry/ORCA/C8H8/cubane/optimize/MP2/cc-pVDZ-RI_sym/./cubane.en.tmp) ****
----------------
ORBITAL ENERGIES
----------------

  NO   OCC          E(Eh)            E(eV)    Irrep 
   0   2.0000     -11.229134      -305.5603    1-Ag
   1   2.0000     -11.228658      -305.5473    1-B1u
   2   2.0000     -11.228658      -305.5473    1-B3u
   3   2.0000     -11.228658      -305.5473    1-B2u
   4   2.0000     -11.228175      -305.5342    1-B1g
   5   2.0000     -11.228175      -305.5342    1-B2g
   6   2.0000     -11.228175      -305.5342    1-B3g
   7   2.0000     -11.227674      -305.5205    1-Au
   8   2.0000      -1.240611       -33.7587    2-Ag
   9   2.0000      -0.976837       -26.5811    2-B1u
  10   2.0000      -0.976837       -26.5811    2-B3u
  11   2.0000      -0.976837       -26.5811    2-B2u
  12   2.0000      -0.766008       -20.8441    2-B2g
  13   2.0000      -0.766008       -20.8441    2-B3g
  14   2.0000      -0.766008       -20.8441    2-B1g
  15   2.0000      -0.704990       -19.1838    3-Ag
  16   2.0000      -0.638953       -17.3868    2-Au
  17   2.0000      -0.576985       -15.7006    3-B1u
  18   2.0000      -0.576985       -15.7006    3-B2u
  19   2.0000      -0.576985       -15.7006    3-B3u
  20   2.0000      -0.576061       -15.6754    4-Ag
  21   2.0000      -0.576061       -15.6754    5-Ag
  22   2.0000      -0.389740       -10.6054    4-B1u
  23   2.0000      -0.389740       -10.6054    4-B2u
  24   2.0000      -0.389740       -10.6054    4-B3u
  25   2.0000      -0.384053       -10.4506    3-B1g
  26   2.0000      -0.384053       -10.4506    3-B2g
  27   2.0000      -0.384053       -10.4506    3-B3g
  28   0.0000       0.181506         4.9390    6-Ag
  29   0.0000       0.203144         5.5278    5-B1u
  30   0.0000       0.203144         5.5278    5-B3u
  31   0.0000       0.203144         5.5278    5-B2u
  32   0.0000       0.253664         6.9025    4-B1g
  33   0.0000       0.253664         6.9025    4-B3g
  34   0.0000       0.253664         6.9025    4-B2g
  35   0.0000       0.257108         6.9963    6-B1u
  36   0.0000       0.257108         6.9963    6-B2u
  37   0.0000       0.257108         6.9963    6-B3u
  38   0.0000       0.264363         7.1937    3-Au
  39   0.0000       0.369690        10.0598    5-B3g
  40   0.0000       0.369690        10.0598    5-B2g
  41   0.0000       0.369690        10.0598    5-B1g
  42   0.0000       0.448057        12.1923    6-B1g
  43   0.0000       0.448057        12.1923    6-B2g
  44   0.0000       0.448057        12.1923    6-B3g
  45   0.0000       0.494345        13.4518    7-Ag
  46   0.0000       0.521375        14.1873    4-Au
  47   0.0000       0.521375        14.1873    5-Au
  48   0.0000       0.615824        16.7574    8-Ag
  49   0.0000       0.615824        16.7574    9-Ag
  50   0.0000       0.668593        18.1933    7-B1u
  51   0.0000       0.668593        18.1933    7-B2u
  52   0.0000       0.668593        18.1933    7-B3u
  53   0.0000       0.681686        18.5496    8-B2u
  54   0.0000       0.681686        18.5496    8-B3u
  55   0.0000       0.681686        18.5496    8-B1u
  56   0.0000       0.691946        18.8288    6-Au
  57   0.0000       0.787630        21.4325    9-B2u
  58   0.0000       0.787630        21.4325    9-B3u
  59   0.0000       0.787630        21.4325    9-B1u
  60   0.0000       0.802147        21.8275    7-B1g
  61   0.0000       0.802147        21.8275    7-B3g
  62   0.0000       0.802147        21.8275    7-B2g
  63   0.0000       0.864607        23.5272    8-B1g
  64   0.0000       0.864607        23.5272    8-B3g
  65   0.0000       0.864607        23.5272    8-B2g
  66   0.0000       0.875471        23.8228    9-B3g
  67   0.0000       0.875471        23.8228    9-B2g
  68   0.0000       0.875471        23.8228    9-B1g
  69   0.0000       0.917810        24.9749   10-Ag
  70   0.0000       0.945079        25.7169    7-Au
  71   0.0000       0.945079        25.7169    8-Au
  72   0.0000       0.948010        25.7967   11-Ag
  73   0.0000       0.948010        25.7967   12-Ag
  74   0.0000       0.997556        27.1449   10-B1u
  75   0.0000       0.997556        27.1449   10-B3u
  76   0.0000       0.997556        27.1449   10-B2u
  77   0.0000       1.044066        28.4105    9-Au
  78   0.0000       1.258751        34.2523   11-B3u
  79   0.0000       1.258751        34.2523   11-B2u
  80   0.0000       1.258751        34.2523   11-B1u
  81   0.0000       1.283255        34.9191   10-B1g
  82   0.0000       1.283255        34.9191   10-B3g
  83   0.0000       1.283255        34.9191   10-B2g
  84   0.0000       1.330945        36.2168   13-Ag
  85   0.0000       1.350695        36.7543   10-Au
  86   0.0000       1.583711        43.0950   11-B3g
  87   0.0000       1.583711        43.0950   11-B2g
  88   0.0000       1.583711        43.0950   11-B1g
  89   0.0000       1.612640        43.8822   12-B1u
  90   0.0000       1.612640        43.8822   12-B2u
  91   0.0000       1.612640        43.8822   12-B3u
  92   0.0000       1.636134        44.5215   14-Ag
  93   0.0000       1.636134        44.5215   15-Ag
  94   0.0000       1.710569        46.5470   13-B1u
  95   0.0000       1.710569        46.5470   13-B2u
  96   0.0000       1.710569        46.5470   13-B3u
  97   0.0000       1.765998        48.0553   14-B1u
  98   0.0000       1.765998        48.0553   14-B3u
  99   0.0000       1.765998        48.0553   14-B2u
 100   0.0000       1.876045        51.0498   12-B1g
 101   0.0000       1.876045        51.0498   12-B2g
 102   0.0000       1.876045        51.0498   12-B3g
 103   0.0000       1.932299        52.5805   15-B1u
 104   0.0000       1.932299        52.5805   15-B3u
 105   0.0000       1.932299        52.5805   15-B2u
 106   0.0000       1.963527        53.4303   16-Ag
 107   0.0000       1.963527        53.4303   17-Ag
 108   0.0000       1.971935        53.6591   18-Ag
 109   0.0000       1.977514        53.8109   13-B3g
 110   0.0000       1.977514        53.8109   13-B2g
 111   0.0000       1.977514        53.8109   13-B1g
 112   0.0000       2.082837        56.6769   11-Au
 113   0.0000       2.082837        56.6769   12-Au
 114   0.0000       2.172766        59.1240   14-B1g
 115   0.0000       2.172766        59.1240   14-B2g
 116   0.0000       2.172766        59.1240   14-B3g
 117   0.0000       2.196697        59.7752   16-B1u
 118   0.0000       2.196697        59.7752   16-B3u
 119   0.0000       2.196697        59.7752   16-B2u
 120   0.0000       2.203922        59.9718   15-B3g
 121   0.0000       2.203922        59.9718   15-B2g
 122   0.0000       2.203922        59.9718   15-B1g
 123   0.0000       2.271133        61.8007   17-B2u
 124   0.0000       2.271133        61.8007   17-B3u
 125   0.0000       2.271133        61.8007   17-B1u
 126   0.0000       2.350220        63.9527   16-B3g
 127   0.0000       2.350220        63.9527   16-B2g
 128   0.0000       2.350220        63.9527   16-B1g
 129   0.0000       2.378704        64.7278   13-Au
 130   0.0000       2.397753        65.2462   18-B1u
 131   0.0000       2.397753        65.2462   18-B2u
 132   0.0000       2.397753        65.2462   18-B3u
 133   0.0000       2.449016        66.6411   14-Au
 134   0.0000       2.449016        66.6411   15-Au
 135   0.0000       2.564588        69.7860   17-B1g
 136   0.0000       2.564588        69.7860   17-B3g
 137   0.0000       2.564588        69.7860   17-B2g
 138   0.0000       2.707223        73.6673   19-Ag
 139   0.0000       2.773548        75.4721   19-B1u
 140   0.0000       2.773548        75.4721   19-B3u
 141   0.0000       2.773548        75.4721   19-B2u
 142   0.0000       2.809633        76.4540   16-Au
 143   0.0000       2.809633        76.4540   17-Au
 144   0.0000       2.841771        77.3285   18-B3g
 145   0.0000       2.841771        77.3285   18-B2g
 146   0.0000       2.841771        77.3285   18-B1g
 147   0.0000       3.152434        85.7821   18-Au
 148   0.0000       3.406491        92.6953   19-B2g
 149   0.0000       3.406491        92.6953   19-B3g
 150   0.0000       3.406491        92.6953   19-B1g
 151   0.0000       4.289691       116.7284   19-Au

                    ********************************
                    * MULLIKEN POPULATION ANALYSIS *
                    ********************************

-----------------------
MULLIKEN ATOMIC CHARGES
-----------------------
   0 H :   -0.000193
   1 C :    0.000193
   2 H :   -0.000193
   3 C :    0.000193
   4 H :   -0.000193
   5 C :    0.000193
   6 H :   -0.000193
   7 C :    0.000193
   8 H :   -0.000193
   9 C :    0.000193
  10 H :   -0.000193
  11 C :    0.000193
  12 H :   -0.000193
  13 C :    0.000193
  14 H :   -0.000193
  15 C :    0.000193
Sum of atomic charges:   -0.0000000

--------------------------------
MULLIKEN REDUCED ORBITAL CHARGES
--------------------------------
  0 H s       :     0.969918  s :     0.969918
      pz      :     0.010092  p :     0.030276
      px      :     0.010092
      py      :     0.010092
  1 C s       :     3.203735  s :     3.203735
      pz      :     0.900866  p :     2.702598
      px      :     0.900866
      py      :     0.900866
      dz2     :     0.027001  d :     0.093474
      dxz     :     0.013157
      dyz     :     0.013157
      dx2y2   :     0.027001
      dxy     :     0.013157
  2 H s       :     0.969918  s :     0.969918
      pz      :     0.010092  p :     0.030276
      px      :     0.010092
      py      :     0.010092
  3 C s       :     3.203735  s :     3.203735
      pz      :     0.900866  p :     2.702598
      px      :     0.900866
      py      :     0.900866
      dz2     :     0.027001  d :     0.093474
      dxz     :     0.013157
      dyz     :     0.013157
      dx2y2   :     0.027001
      dxy     :     0.013157
  4 H s       :     0.969918  s :     0.969918
      pz      :     0.010092  p :     0.030276
      px      :     0.010092
      py      :     0.010092
  5 C s       :     3.203735  s :     3.203735
      pz      :     0.900866  p :     2.702598
      px      :     0.900866
      py      :     0.900866
      dz2     :     0.027001  d :     0.093474
      dxz     :     0.013157
      dyz     :     0.013157
      dx2y2   :     0.027001
      dxy     :     0.013157
  6 H s       :     0.969918  s :     0.969918
      pz      :     0.010092  p :     0.030276
      px      :     0.010092
      py      :     0.010092
  7 C s       :     3.203735  s :     3.203735
      pz      :     0.900866  p :     2.702598
      px      :     0.900866
      py      :     0.900866
      dz2     :     0.027001  d :     0.093474
      dxz     :     0.013157
      dyz     :     0.013157
      dx2y2   :     0.027001
      dxy     :     0.013157
  8 H s       :     0.969918  s :     0.969918
      pz      :     0.010092  p :     0.030276
      px      :     0.010092
      py      :     0.010092
  9 C s       :     3.203735  s :     3.203735
      pz      :     0.900866  p :     2.702598
      px      :     0.900866
      py      :     0.900866
      dz2     :     0.027001  d :     0.093474
      dxz     :     0.013157
      dyz     :     0.013157
      dx2y2   :     0.027001
      dxy     :     0.013157
 10 H s       :     0.969918  s :     0.969918
      pz      :     0.010092  p :     0.030276
      px      :     0.010092
      py      :     0.010092
 11 C s       :     3.203735  s :     3.203735
      pz      :     0.900866  p :     2.702598
      px      :     0.900866
      py      :     0.900866
      dz2     :     0.027001  d :     0.093474
      dxz     :     0.013157
      dyz     :     0.013157
      dx2y2   :     0.027001
      dxy     :     0.013157
 12 H s       :     0.969918  s :     0.969918
      pz      :     0.010092  p :     0.030276
      px      :     0.010092
      py      :     0.010092
 13 C s       :     3.203735  s :     3.203735
      pz      :     0.900866  p :     2.702598
      px      :     0.900866
      py      :     0.900866
      dz2     :     0.027001  d :     0.093474
      dxz     :     0.013157
      dyz     :     0.013157
      dx2y2   :     0.027001
      dxy     :     0.013157
 14 H s       :     0.969918  s :     0.969918
      pz      :     0.010092  p :     0.030276
      px      :     0.010092
      py      :     0.010092
 15 C s       :     3.203735  s :     3.203735
      pz      :     0.900866  p :     2.702598
      px      :     0.900866
      py      :     0.900866
      dz2     :     0.027001  d :     0.093474
      dxz     :     0.013157
      dyz     :     0.013157
      dx2y2   :     0.027001
      dxy     :     0.013157


                     *******************************
                     * LOEWDIN POPULATION ANALYSIS *
                     *******************************

----------------------
LOEWDIN ATOMIC CHARGES
----------------------
   0 H :   -0.001236
   1 C :    0.001236
   2 H :   -0.001236
   3 C :    0.001236
   4 H :   -0.001236
   5 C :    0.001236
   6 H :   -0.001236
   7 C :    0.001236
   8 H :   -0.001236
   9 C :    0.001236
  10 H :   -0.001236
  11 C :    0.001236
  12 H :   -0.001236
  13 C :    0.001236
  14 H :   -0.001236
  15 C :    0.001236

-------------------------------
LOEWDIN REDUCED ORBITAL CHARGES
-------------------------------
  0 H s       :     0.916573  s :     0.916573
      pz      :     0.028221  p :     0.084663
      px      :     0.028221
      py      :     0.028221
  1 C s       :     2.823305  s :     2.823305
      pz      :     0.982677  p :     2.948031
      px      :     0.982677
      py      :     0.982677
      dz2     :     0.058395  d :     0.227428
      dxz     :     0.036879
      dyz     :     0.036879
      dx2y2   :     0.058395
      dxy     :     0.036879
  2 H s       :     0.916573  s :     0.916573
      pz      :     0.028221  p :     0.084663
      px      :     0.028221
      py      :     0.028221
  3 C s       :     2.823305  s :     2.823305
      pz      :     0.982677  p :     2.948031
      px      :     0.982677
      py      :     0.982677
      dz2     :     0.058395  d :     0.227428
      dxz     :     0.036879
      dyz     :     0.036879
      dx2y2   :     0.058395
      dxy     :     0.036879
  4 H s       :     0.916573  s :     0.916573
      pz      :     0.028221  p :     0.084663
      px      :     0.028221
      py      :     0.028221
  5 C s       :     2.823305  s :     2.823305
      pz      :     0.982677  p :     2.948031
      px      :     0.982677
      py      :     0.982677
      dz2     :     0.058395  d :     0.227428
      dxz     :     0.036879
      dyz     :     0.036879
      dx2y2   :     0.058395
      dxy     :     0.036879
  6 H s       :     0.916573  s :     0.916573
      pz      :     0.028221  p :     0.084663
      px      :     0.028221
      py      :     0.028221
  7 C s       :     2.823305  s :     2.823305
      pz      :     0.982677  p :     2.948031
      px      :     0.982677
      py      :     0.982677
      dz2     :     0.058395  d :     0.227428
      dxz     :     0.036879
      dyz     :     0.036879
      dx2y2   :     0.058395
      dxy     :     0.036879
  8 H s       :     0.916573  s :     0.916573
      pz      :     0.028221  p :     0.084663
      px      :     0.028221
      py      :     0.028221
  9 C s       :     2.823305  s :     2.823305
      pz      :     0.982677  p :     2.948031
      px      :     0.982677
      py      :     0.982677
      dz2     :     0.058395  d :     0.227428
      dxz     :     0.036879
      dyz     :     0.036879
      dx2y2   :     0.058395
      dxy     :     0.036879
 10 H s       :     0.916573  s :     0.916573
      pz      :     0.028221  p :     0.084663
      px      :     0.028221
      py      :     0.028221
 11 C s       :     2.823305  s :     2.823305
      pz      :     0.982677  p :     2.948031
      px      :     0.982677
      py      :     0.982677
      dz2     :     0.058395  d :     0.227428
      dxz     :     0.036879
      dyz     :     0.036879
      dx2y2   :     0.058395
      dxy     :     0.036879
 12 H s       :     0.916573  s :     0.916573
      pz      :     0.028221  p :     0.084663
      px      :     0.028221
      py      :     0.028221
 13 C s       :     2.823305  s :     2.823305
      pz      :     0.982677  p :     2.948031
      px      :     0.982677
      py      :     0.982677
      dz2     :     0.058395  d :     0.227428
      dxz     :     0.036879
      dyz     :     0.036879
      dx2y2   :     0.058395
      dxy     :     0.036879
 14 H s       :     0.916573  s :     0.916573
      pz      :     0.028221  p :     0.084663
      px      :     0.028221
      py      :     0.028221
 15 C s       :     2.823305  s :     2.823305
      pz      :     0.982677  p :     2.948031
      px      :     0.982677
      py      :     0.982677
      dz2     :     0.058395  d :     0.227428
      dxz     :     0.036879
      dyz     :     0.036879
      dx2y2   :     0.058395
      dxy     :     0.036879


                      *****************************
                      * MAYER POPULATION ANALYSIS *
                      *****************************

  NA   - Mulliken gross atomic population
  ZA   - Total nuclear charge
  QA   - Mulliken gross atomic charge
  VA   - Mayer's total valence
  BVA  - Mayer's bonded valence
  FA   - Mayer's free valence

  ATOM       NA         ZA         QA         VA         BVA        FA
  0 H      1.0002     1.0000    -0.0002     0.9938     0.9938     0.0000
  1 C      5.9998     6.0000     0.0002     3.8032     3.8032    -0.0000
  2 H      1.0002     1.0000    -0.0002     0.9938     0.9938    -0.0000
  3 C      5.9998     6.0000     0.0002     3.8032     3.8032    -0.0000
  4 H      1.0002     1.0000    -0.0002     0.9938     0.9938    -0.0000
  5 C      5.9998     6.0000     0.0002     3.8032     3.8032    -0.0000
  6 H      1.0002     1.0000    -0.0002     0.9938     0.9938     0.0000
  7 C      5.9998     6.0000     0.0002     3.8032     3.8032    -0.0000
  8 H      1.0002     1.0000    -0.0002     0.9938     0.9938     0.0000
  9 C      5.9998     6.0000     0.0002     3.8032     3.8032     0.0000
 10 H      1.0002     1.0000    -0.0002     0.9938     0.9938    -0.0000
 11 C      5.9998     6.0000     0.0002     3.8032     3.8032    -0.0000
 12 H      1.0002     1.0000    -0.0002     0.9938     0.9938    -0.0000
 13 C      5.9998     6.0000     0.0002     3.8032     3.8032    -0.0000
 14 H      1.0002     1.0000    -0.0002     0.9938     0.9938     0.0000
 15 C      5.9998     6.0000     0.0002     3.8032     3.8032     0.0000

  Mayer bond orders larger than 0.1
B(  0-H ,  1-C ) :   0.9942 B(  1-C ,  3-C ) :   0.9745 B(  1-C ,  5-C ) :   0.9745 
B(  1-C ,  7-C ) :   0.9745 B(  2-H ,  3-C ) :   0.9942 B(  3-C ,  9-C ) :   0.9745 
B(  3-C , 11-C ) :   0.9745 B(  4-H ,  5-C ) :   0.9942 B(  5-C ,  9-C ) :   0.9745 
B(  5-C , 13-C ) :   0.9745 B(  6-H ,  7-C ) :   0.9942 B(  7-C , 11-C ) :   0.9745 
B(  7-C , 13-C ) :   0.9745 B(  8-H ,  9-C ) :   0.9942 B(  9-C , 15-C ) :   0.9745 
B( 10-H , 11-C ) :   0.9942 B( 11-C , 15-C ) :   0.9745 B( 12-H , 13-C ) :   0.9942 
B( 13-C , 15-C ) :   0.9745 B( 14-H , 15-C ) :   0.9942 

-------
TIMINGS
-------

Total SCF time: 0 days 0 hours 0 min 18 sec 

Total time                  ....      18.639 sec
Sum of individual times     ....      18.556 sec  ( 99.6%)

Fock matrix formation       ....      18.265 sec  ( 98.0%)
Diagonalization             ....       0.014 sec  (  0.1%)
Density matrix formation    ....       0.002 sec  (  0.0%)
Population analysis         ....       0.008 sec  (  0.0%)
Initial guess               ....       0.151 sec  (  0.8%)
Orbital Transformation      ....       0.000 sec  (  0.0%)
Orbital Orthonormalization  ....       0.000 sec  (  0.0%)
DIIS solution               ....       0.006 sec  (  0.0%)
SOSCF solution              ....       0.011 sec  (  0.1%)


           ************************************************************
           *        Program running with 4 parallel MPI-processes     *
           *              working on a common directory               *
           ************************************************************

------------------------------------------------------------------------------
                                ORCA  MP2 
------------------------------------------------------------------------------

Freezing NCore=16 chemical core electrons

----------------------
RI-MP2 ENERGY+GRADIENT
----------------------
Dimension of the basis                    ...  152
Memory devoted to MP2                     ...  256 MB   
Data format for buffers                   ... DOUBLE
Compression type for matrix containers    ... UNCOMPRESSED
Overall scaling of the MP2 energy         ...   1.000e+00
Calculating two index integrals           ... done (    0.008 sec)
Cholesky decomposition of the V-matrix    ... done
Cholesky decomposition of V**-1           ... done (    0.015 sec)

-----------------
RI-TRANSFORMATION (AUX index driven)
-----------------

Dimension of the orbital-basis         ... 152
Dimension of the aux-basis             ... 560
Transformation of internal MOs         ...    0-  27
Transformation of internal/external MOs...    0-  27 to   28- 151
Number Format for Storage              ... Double (8 Byte)
Integral mode                          ... Direct

First Phase: integral generation and transformation of MO indices
  Aux angular momentum 0               ... done (    0.027 sec)
  Aux angular momentum 1               ... done (    0.029 sec)
  Aux angular momentum 2               ... done (    0.029 sec)
  Aux angular momentum 3               ... done (    0.015 sec)
Closing buffer VIJ ( 0.00 GB; CompressionRatio= 1.00)
Closing buffer VIA ( 0.00 GB; CompressionRatio= 1.00)
  Phase 1 completed in     0.157 sec
Second Phase: sorting and transformation of aux index

IJ-Transformation
Memory available                       ... 248 MB 
Max. # MO pairs treated in a batch     ... 7    
# of internal orbitals                 ... 28
# batches for internal orbitals        ... 1
Closing buffer IJV ( 0.00 GB; CompressionRatio= 1.00)
(ij|v) transformation done in     0.011 sec

IA-Transformation
Memory available                       ... 248 MB 
Max. # MO pairs treated in a batch     ... 7    
# of internal orbitals                 ... 28
# batches for internal orbitals        ... 1
Closing buffer IAV ( 0.00 GB; CompressionRatio= 1.00)
(ia|v) transformation done in     0.027 sec

  Phase 2 completed in     0.052 sec
RI-Integral transformation completed in     0.214 sec
Opening buffers                              ... done
Frozen core precalculation                   ... done

Starting loop over batches of integrals:

Operator 0  - window                       ... (  8- 27)x( 28-151)
Operator 0  - Memory available             ...   256 MB
Operator 0  - Memory needed per MO         ...   1.1 MB
Operator 0  - Number of orbitals per batch ... 5
Operator 0  - Number of batches            ... 1

OPERATOR  0   PASS   0:  MOs     8 ...   12 +   13 ...   17 +   18 ...   22 +   23 ...   27
  Reading integrals       ... ok
  Internal MO  10
Time spent in pair loops =     1.774 sec
Deleting buffer (Ka|jb)[aa] ...done

-----------------------------------------------
 RI-MP2 CORRELATION ENERGY:     -1.070528191 Eh
-----------------------------------------------


---------------------
MP2 DENSITY FORMATION
---------------------

Completing the external part of the density      ... done
Storing the unrelaxed density                    ... done

Calculating G(D)                                 ... done
Completing the Lagrangian                        ... done
Solving the Z-vector equations                   ... 

------------------------------------------------------------------------------
                           ORCA CP-SCF CALCULATION
------------------------------------------------------------------------------

Input orbitals are from        ... /home/vladimir/Quantum_Chemistry/ORCA/C8H8/cubane/optimize/MP2/cc-pVDZ-RI_sym/./cubane.gbw
Input Perturbation             ... /home/vladimir/Quantum_Chemistry/ORCA/C8H8/cubane/optimize/MP2/cc-pVDZ-RI_sym/./cubane.pin.tmp
Wavefunction output            ... /home/vladimir/Quantum_Chemistry/ORCA/C8H8/cubane/optimize/MP2/cc-pVDZ-RI_sym/./cubane.pout.tmp
Perturbation mode              ... Real perturbation
Solver                         ... POPLE
Max. number of iterations      ... 128
Convergence tolerance          ... 1.000e-08
Integral handling              ... Direct
Number of perturbations        ... 1
Number of operators            ... 1
Orbital ranges used for CP-SCF:
 Operator 0:  Orbitals   0... 27  to  28...151
Variables per vector in CP-SCF ... 3472
Number of vectors sought       ... 1
     CP-SCF ITERATION   0: 
     CP-SCF ITERATION   1:      0.000173486669
     CP-SCF ITERATION   2:      0.000008223110
     CP-SCF ITERATION   3:      0.000000120710
     CP-SCF ITERATION   4:      0.000000001779
done
Finalizing the relaxed density                   ... done
Transforming P to the AO basis                   ... done
Storing the relaxed density                      ... done

------------------------------------
ENERGY WEIGHTED DENSITY FINALIZATION
------------------------------------

Gathering the parts of the W-matrix              ... done
Forming the Z-density                            ... done
Transforming Z to the AO basis                   ... done
Calculating G(Z)                                 ... done
Finalizing the W-matrix                          ... done
Transforming W to the AO basis and storing       ... done

----------------------------------
MP2 DERIVATIVE INTEGRAL GENERATION
----------------------------------


Input Correlated Electron Density   ... /home/vladimir/Quantum_Chemistry/ORCA/C8H8/cubane/optimize/MP2/cc-pVDZ-RI_sym/./cubane.pmp2re
Input Energy Weighted Density       ... /home/vladimir/Quantum_Chemistry/ORCA/C8H8/cubane/optimize/MP2/cc-pVDZ-RI_sym/./cubane.wmp2.tmp
Input SCF Electron Density          ... /home/vladimir/Quantum_Chemistry/ORCA/C8H8/cubane/optimize/MP2/cc-pVDZ-RI_sym/./cubane.scfp.tmp

One-Electron Terms    ...
                        ... One-Electron Terms done
Prescreening matrices              ... done

                *********************************************
                * UNRELAXED MP2 DENSITY POPULATION ANALYSIS *
                *********************************************

------------------------------------------------------------------------------
                           ORCA POPULATION ANALYSIS
------------------------------------------------------------------------------
Input electron density              ... /home/vladimir/Quantum_Chemistry/ORCA/C8H8/cubane/optimize/MP2/cc-pVDZ-RI_sym/./cubane.pmp2ur
BaseName (.gbw .S,...)              ... /home/vladimir/Quantum_Chemistry/ORCA/C8H8/cubane/optimize/MP2/cc-pVDZ-RI_sym/./cubane

                    ********************************
                    * MULLIKEN POPULATION ANALYSIS *
                    ********************************

-----------------------
MULLIKEN ATOMIC CHARGES
-----------------------
   0 H :    0.003106
   1 C :   -0.003106
   2 H :    0.003106
   3 C :   -0.003106
   4 H :    0.003106
   5 C :   -0.003106
   6 H :    0.003106
   7 C :   -0.003106
   8 H :    0.003106
   9 C :   -0.003106
  10 H :    0.003106
  11 C :   -0.003106
  12 H :    0.003106
  13 C :   -0.003106
  14 H :    0.003106
  15 C :   -0.003106
Sum of atomic charges:   -0.0000000

--------------------------------
MULLIKEN REDUCED ORBITAL CHARGES
--------------------------------
  0 H s       :     0.963222  s :     0.963222
      pz      :     0.011224  p :     0.033672
      px      :     0.011224
      py      :     0.011224
  1 C s       :     3.200130  s :     3.200130
      pz      :     0.895995  p :     2.687984
      px      :     0.895995
      py      :     0.895995
      dz2     :     0.030444  d :     0.114991
      dxz     :     0.018034
      dyz     :     0.018034
      dx2y2   :     0.030444
      dxy     :     0.018034
  2 H s       :     0.963222  s :     0.963222
      pz      :     0.011224  p :     0.033672
      px      :     0.011224
      py      :     0.011224
  3 C s       :     3.200130  s :     3.200130
      pz      :     0.895995  p :     2.687984
      px      :     0.895995
      py      :     0.895995
      dz2     :     0.030444  d :     0.114991
      dxz     :     0.018034
      dyz     :     0.018034
      dx2y2   :     0.030444
      dxy     :     0.018034
  4 H s       :     0.963222  s :     0.963222
      pz      :     0.011224  p :     0.033672
      px      :     0.011224
      py      :     0.011224
  5 C s       :     3.200130  s :     3.200130
      pz      :     0.895995  p :     2.687984
      px      :     0.895995
      py      :     0.895995
      dz2     :     0.030444  d :     0.114991
      dxz     :     0.018034
      dyz     :     0.018034
      dx2y2   :     0.030444
      dxy     :     0.018034
  6 H s       :     0.963222  s :     0.963222
      pz      :     0.011224  p :     0.033672
      px      :     0.011224
      py      :     0.011224
  7 C s       :     3.200130  s :     3.200130
      pz      :     0.895995  p :     2.687984
      px      :     0.895995
      py      :     0.895995
      dz2     :     0.030444  d :     0.114991
      dxz     :     0.018034
      dyz     :     0.018034
      dx2y2   :     0.030444
      dxy     :     0.018034
  8 H s       :     0.963222  s :     0.963222
      pz      :     0.011224  p :     0.033672
      px      :     0.011224
      py      :     0.011224
  9 C s       :     3.200130  s :     3.200130
      pz      :     0.895995  p :     2.687984
      px      :     0.895995
      py      :     0.895995
      dz2     :     0.030444  d :     0.114991
      dxz     :     0.018034
      dyz     :     0.018034
      dx2y2   :     0.030444
      dxy     :     0.018034
 10 H s       :     0.963222  s :     0.963222
      pz      :     0.011224  p :     0.033672
      px      :     0.011224
      py      :     0.011224
 11 C s       :     3.200130  s :     3.200130
      pz      :     0.895995  p :     2.687984
      px      :     0.895995
      py      :     0.895995
      dz2     :     0.030444  d :     0.114991
      dxz     :     0.018034
      dyz     :     0.018034
      dx2y2   :     0.030444
      dxy     :     0.018034
 12 H s       :     0.963222  s :     0.963222
      pz      :     0.011224  p :     0.033672
      px      :     0.011224
      py      :     0.011224
 13 C s       :     3.200130  s :     3.200130
      pz      :     0.895995  p :     2.687984
      px      :     0.895995
      py      :     0.895995
      dz2     :     0.030444  d :     0.114991
      dxz     :     0.018034
      dyz     :     0.018034
      dx2y2   :     0.030444
      dxy     :     0.018034
 14 H s       :     0.963222  s :     0.963222
      pz      :     0.011224  p :     0.033672
      px      :     0.011224
      py      :     0.011224
 15 C s       :     3.200130  s :     3.200130
      pz      :     0.895995  p :     2.687984
      px      :     0.895995
      py      :     0.895995
      dz2     :     0.030444  d :     0.114991
      dxz     :     0.018034
      dyz     :     0.018034
      dx2y2   :     0.030444
      dxy     :     0.018034


                     *******************************
                     * LOEWDIN POPULATION ANALYSIS *
                     *******************************

----------------------
LOEWDIN ATOMIC CHARGES
----------------------
   0 H :   -0.000366
   1 C :    0.000366
   2 H :   -0.000366
   3 C :    0.000366
   4 H :   -0.000366
   5 C :    0.000366
   6 H :   -0.000366
   7 C :    0.000366
   8 H :   -0.000366
   9 C :    0.000366
  10 H :   -0.000366
  11 C :    0.000366
  12 H :   -0.000366
  13 C :    0.000366
  14 H :   -0.000366
  15 C :    0.000366

-------------------------------
LOEWDIN REDUCED ORBITAL CHARGES
-------------------------------
  0 H s       :     0.909342  s :     0.909342
      pz      :     0.030341  p :     0.091024
      px      :     0.030341
      py      :     0.030341
  1 C s       :     2.822493  s :     2.822493
      pz      :     0.975263  p :     2.925788
      px      :     0.975263
      py      :     0.975263
      dz2     :     0.063109  d :     0.251354
      dxz     :     0.041712
      dyz     :     0.041712
      dx2y2   :     0.063109
      dxy     :     0.041712
  2 H s       :     0.909342  s :     0.909342
      pz      :     0.030341  p :     0.091024
      px      :     0.030341
      py      :     0.030341
  3 C s       :     2.822493  s :     2.822493
      pz      :     0.975263  p :     2.925788
      px      :     0.975263
      py      :     0.975263
      dz2     :     0.063109  d :     0.251354
      dxz     :     0.041712
      dyz     :     0.041712
      dx2y2   :     0.063109
      dxy     :     0.041712
  4 H s       :     0.909342  s :     0.909342
      pz      :     0.030341  p :     0.091024
      px      :     0.030341
      py      :     0.030341
  5 C s       :     2.822493  s :     2.822493
      pz      :     0.975263  p :     2.925788
      px      :     0.975263
      py      :     0.975263
      dz2     :     0.063109  d :     0.251354
      dxz     :     0.041712
      dyz     :     0.041712
      dx2y2   :     0.063109
      dxy     :     0.041712
  6 H s       :     0.909342  s :     0.909342
      pz      :     0.030341  p :     0.091024
      px      :     0.030341
      py      :     0.030341
  7 C s       :     2.822493  s :     2.822493
      pz      :     0.975263  p :     2.925788
      px      :     0.975263
      py      :     0.975263
      dz2     :     0.063109  d :     0.251354
      dxz     :     0.041712
      dyz     :     0.041712
      dx2y2   :     0.063109
      dxy     :     0.041712
  8 H s       :     0.909342  s :     0.909342
      pz      :     0.030341  p :     0.091024
      px      :     0.030341
      py      :     0.030341
  9 C s       :     2.822493  s :     2.822493
      pz      :     0.975263  p :     2.925788
      px      :     0.975263
      py      :     0.975263
      dz2     :     0.063109  d :     0.251354
      dxz     :     0.041712
      dyz     :     0.041712
      dx2y2   :     0.063109
      dxy     :     0.041712
 10 H s       :     0.909342  s :     0.909342
      pz      :     0.030341  p :     0.091024
      px      :     0.030341
      py      :     0.030341
 11 C s       :     2.822493  s :     2.822493
      pz      :     0.975263  p :     2.925788
      px      :     0.975263
      py      :     0.975263
      dz2     :     0.063109  d :     0.251354
      dxz     :     0.041712
      dyz     :     0.041712
      dx2y2   :     0.063109
      dxy     :     0.041712
 12 H s       :     0.909342  s :     0.909342
      pz      :     0.030341  p :     0.091024
      px      :     0.030341
      py      :     0.030341
 13 C s       :     2.822493  s :     2.822493
      pz      :     0.975263  p :     2.925788
      px      :     0.975263
      py      :     0.975263
      dz2     :     0.063109  d :     0.251354
      dxz     :     0.041712
      dyz     :     0.041712
      dx2y2   :     0.063109
      dxy     :     0.041712
 14 H s       :     0.909342  s :     0.909342
      pz      :     0.030341  p :     0.091024
      px      :     0.030341
      py      :     0.030341
 15 C s       :     2.822493  s :     2.822493
      pz      :     0.975263  p :     2.925788
      px      :     0.975263
      py      :     0.975263
      dz2     :     0.063109  d :     0.251354
      dxz     :     0.041712
      dyz     :     0.041712
      dx2y2   :     0.063109
      dxy     :     0.041712


                      *****************************
                      * MAYER POPULATION ANALYSIS *
                      *****************************

  NA   - Mulliken gross atomic population
  ZA   - Total nuclear charge
  QA   - Mulliken gross atomic charge
  VA   - Mayer's total valence
  BVA  - Mayer's bonded valence
  FA   - Mayer's free valence

  ATOM       NA         ZA         QA         VA         BVA        FA
[...]
                      *****************************

  NA   - Mulliken gross atomic population
  ZA   - Total nuclear charge
  QA   - Mulliken gross atomic charge
  VA   - Mayer's total valence
  BVA  - Mayer's bonded valence
  FA   - Mayer's free valence

  ATOM       NA         ZA         QA         VA         BVA        FA
  0 H      0.9966     1.0000     0.0034     1.0054     0.9507     0.0547
  1 C      6.0034     6.0000    -0.0034     3.8908     3.5641     0.3266
  2 H      0.9966     1.0000     0.0034     1.0054     0.9507     0.0547
  3 C      6.0034     6.0000    -0.0034     3.8908     3.5641     0.3266
  4 H      0.9966     1.0000     0.0034     1.0054     0.9507     0.0547
  5 C      6.0034     6.0000    -0.0034     3.8908     3.5641     0.3266
  6 H      0.9966     1.0000     0.0034     1.0054     0.9507     0.0547
  7 C      6.0034     6.0000    -0.0034     3.8908     3.5641     0.3266
  8 H      0.9966     1.0000     0.0034     1.0054     0.9507     0.0547
  9 C      6.0034     6.0000    -0.0034     3.8908     3.5641     0.3266
 10 H      0.9966     1.0000     0.0034     1.0054     0.9507     0.0547
 11 C      6.0034     6.0000    -0.0034     3.8908     3.5641     0.3266
 12 H      0.9966     1.0000     0.0034     1.0054     0.9507     0.0547
 13 C      6.0034     6.0000    -0.0034     3.8908     3.5641     0.3266
 14 H      0.9966     1.0000     0.0034     1.0054     0.9507     0.0547
 15 C      6.0034     6.0000    -0.0034     3.8908     3.5641     0.3266

  Mayer bond orders larger than 0.1
B(  0-H ,  1-C ) :   0.9543 B(  1-C ,  3-C ) :   0.9081 B(  1-C ,  5-C ) :   0.9081 
B(  1-C ,  7-C ) :   0.9081 B(  2-H ,  3-C ) :   0.9543 B(  3-C ,  9-C ) :   0.9081 
B(  3-C , 11-C ) :   0.9081 B(  4-H ,  5-C ) :   0.9543 B(  5-C ,  9-C ) :   0.9081 
B(  5-C , 13-C ) :   0.9081 B(  6-H ,  7-C ) :   0.9543 B(  7-C , 11-C ) :   0.9081 
B(  7-C , 13-C ) :   0.9081 B(  8-H ,  9-C ) :   0.9543 B(  9-C , 15-C ) :   0.9081 
B( 10-H , 11-C ) :   0.9543 B( 11-C , 15-C ) :   0.9081 B( 12-H , 13-C ) :   0.9543 
B( 13-C , 15-C ) :   0.9081 B( 14-H , 15-C ) :   0.9543 


                *******************************************
                * RELAXED MP2 DENSITY POPULATION ANALYSIS *
                *******************************************

------------------------------------------------------------------------------
                           ORCA POPULATION ANALYSIS
------------------------------------------------------------------------------
Input electron density              ... /home/vladimir/Quantum_Chemistry/ORCA/C8H8/cubane/optimize/MP2/cc-pVDZ-RI_sym/./cubane.pmp2re
BaseName (.gbw .S,...)              ... /home/vladimir/Quantum_Chemistry/ORCA/C8H8/cubane/optimize/MP2/cc-pVDZ-RI_sym/./cubane

                    ********************************
                    * MULLIKEN POPULATION ANALYSIS *
                    ********************************

-----------------------
MULLIKEN ATOMIC CHARGES
-----------------------
   0 H :   -0.001183
   1 C :    0.001183
   2 H :   -0.001183
   3 C :    0.001183
   4 H :   -0.001183
   5 C :    0.001183
   6 H :   -0.001183
   7 C :    0.001183
   8 H :   -0.001183
   9 C :    0.001183
  10 H :   -0.001183
  11 C :    0.001183
  12 H :   -0.001183
  13 C :    0.001183
  14 H :   -0.001183
  15 C :    0.001183
Sum of atomic charges:    0.0000000

--------------------------------
MULLIKEN REDUCED ORBITAL CHARGES
--------------------------------
  0 H s       :     0.968739  s :     0.968739
      pz      :     0.010814  p :     0.032443
      px      :     0.010814
      py      :     0.010814
  1 C s       :     3.195983  s :     3.195983
      pz      :     0.899045  p :     2.697135
      px      :     0.899045
      py      :     0.899045
      dz2     :     0.025411  d :     0.105699
      dxz     :     0.018292
      dyz     :     0.018292
      dx2y2   :     0.025411
      dxy     :     0.018292
  2 H s       :     0.968739  s :     0.968739
      pz      :     0.010814  p :     0.032443
      px      :     0.010814
      py      :     0.010814
  3 C s       :     3.195983  s :     3.195983
      pz      :     0.899045  p :     2.697135
      px      :     0.899045
      py      :     0.899045
      dz2     :     0.025411  d :     0.105699
      dxz     :     0.018292
      dyz     :     0.018292
      dx2y2   :     0.025411
      dxy     :     0.018292
  4 H s       :     0.968739  s :     0.968739
      pz      :     0.010814  p :     0.032443
      px      :     0.010814
      py      :     0.010814
  5 C s       :     3.195983  s :     3.195983
      pz      :     0.899045  p :     2.697135
      px      :     0.899045
      py      :     0.899045
      dz2     :     0.025411  d :     0.105699
      dxz     :     0.018292
      dyz     :     0.018292
      dx2y2   :     0.025411
      dxy     :     0.018292
  6 H s       :     0.968739  s :     0.968739
      pz      :     0.010814  p :     0.032443
      px      :     0.010814
      py      :     0.010814
  7 C s       :     3.195983  s :     3.195983
      pz      :     0.899045  p :     2.697135
      px      :     0.899045
      py      :     0.899045
      dz2     :     0.025411  d :     0.105699
      dxz     :     0.018292
      dyz     :     0.018292
      dx2y2   :     0.025411
      dxy     :     0.018292
  8 H s       :     0.968739  s :     0.968739
      pz      :     0.010814  p :     0.032443
      px      :     0.010814
      py      :     0.010814
  9 C s       :     3.195983  s :     3.195983
      pz      :     0.899045  p :     2.697135
      px      :     0.899045
      py      :     0.899045
      dz2     :     0.025411  d :     0.105699
      dxz     :     0.018292
      dyz     :     0.018292
      dx2y2   :     0.025411
      dxy     :     0.018292
 10 H s       :     0.968739  s :     0.968739
      pz      :     0.010814  p :     0.032443
      px      :     0.010814
      py      :     0.010814
 11 C s       :     3.195983  s :     3.195983
      pz      :     0.899045  p :     2.697135
      px      :     0.899045
      py      :     0.899045
      dz2     :     0.025411  d :     0.105699
      dxz     :     0.018292
      dyz     :     0.018292
      dx2y2   :     0.025411
      dxy     :     0.018292
 12 H s       :     0.968739  s :     0.968739
      pz      :     0.010814  p :     0.032443
      px      :     0.010814
      py      :     0.010814
 13 C s       :     3.195983  s :     3.195983
      pz      :     0.899045  p :     2.697135
      px      :     0.899045
      py      :     0.899045
      dz2     :     0.025411  d :     0.105699
      dxz     :     0.018292
      dyz     :     0.018292
      dx2y2   :     0.025411
      dxy     :     0.018292
 14 H s       :     0.968739  s :     0.968739
      pz      :     0.010814  p :     0.032443
      px      :     0.010814
      py      :     0.010814
 15 C s       :     3.195983  s :     3.195983
      pz      :     0.899045  p :     2.697135
      px      :     0.899045
      py      :     0.899045
      dz2     :     0.025411  d :     0.105699
      dxz     :     0.018292
      dyz     :     0.018292
      dx2y2   :     0.025411
      dxy     :     0.018292


                     *******************************
                     * LOEWDIN POPULATION ANALYSIS *
                     *******************************

----------------------
LOEWDIN ATOMIC CHARGES
----------------------
   0 H :    0.003455
   1 C :   -0.003455
   2 H :    0.003455
   3 C :   -0.003455
   4 H :    0.003455
   5 C :   -0.003455
   6 H :    0.003455
   7 C :   -0.003455
   8 H :    0.003455
   9 C :   -0.003455
  10 H :    0.003455
  11 C :   -0.003455
  12 H :    0.003455
  13 C :   -0.003455
  14 H :    0.003455
  15 C :   -0.003455

-------------------------------
LOEWDIN REDUCED ORBITAL CHARGES
-------------------------------
  0 H s       :     0.904573  s :     0.904573
      pz      :     0.030657  p :     0.091972
      px      :     0.030657
      py      :     0.030657
  1 C s       :     2.828104  s :     2.828104
      pz      :     0.978337  p :     2.935011
      px      :     0.978337
      py      :     0.978337
      dz2     :     0.058132  d :     0.240339
      dxz     :     0.041358
      dyz     :     0.041358
      dx2y2   :     0.058132
      dxy     :     0.041358
  2 H s       :     0.904573  s :     0.904573
      pz      :     0.030657  p :     0.091972
      px      :     0.030657
      py      :     0.030657
  3 C s       :     2.828104  s :     2.828104
      pz      :     0.978337  p :     2.935011
      px      :     0.978337
      py      :     0.978337
      dz2     :     0.058132  d :     0.240339
      dxz     :     0.041358
      dyz     :     0.041358
      dx2y2   :     0.058132
      dxy     :     0.041358
  4 H s       :     0.904573  s :     0.904573
      pz      :     0.030657  p :     0.091972
      px      :     0.030657
      py      :     0.030657
  5 C s       :     2.828104  s :     2.828104
      pz      :     0.978337  p :     2.935011
      px      :     0.978337
      py      :     0.978337
      dz2     :     0.058132  d :     0.240339
      dxz     :     0.041358
      dyz     :     0.041358
      dx2y2   :     0.058132
      dxy     :     0.041358
  6 H s       :     0.904573  s :     0.904573
      pz      :     0.030657  p :     0.091972
      px      :     0.030657
      py      :     0.030657
  7 C s       :     2.828104  s :     2.828104
      pz      :     0.978337  p :     2.935011
      px      :     0.978337
      py      :     0.978337
      dz2     :     0.058132  d :     0.240339
      dxz     :     0.041358
      dyz     :     0.041358
      dx2y2   :     0.058132
      dxy     :     0.041358
  8 H s       :     0.904573  s :     0.904573
      pz      :     0.030657  p :     0.091972
      px      :     0.030657
      py      :     0.030657
  9 C s       :     2.828104  s :     2.828104
      pz      :     0.978337  p :     2.935011
      px      :     0.978337
      py      :     0.978337
      dz2     :     0.058132  d :     0.240339
      dxz     :     0.041358
      dyz     :     0.041358
      dx2y2   :     0.058132
      dxy     :     0.041358
 10 H s       :     0.904573  s :     0.904573
      pz      :     0.030657  p :     0.091972
      px      :     0.030657
      py      :     0.030657
 11 C s       :     2.828104  s :     2.828104
      pz      :     0.978337  p :     2.935011
      px      :     0.978337
      py      :     0.978337
      dz2     :     0.058132  d :     0.240339
      dxz     :     0.041358
      dyz     :     0.041358
      dx2y2   :     0.058132
      dxy     :     0.041358
 12 H s       :     0.904573  s :     0.904573
      pz      :     0.030657  p :     0.091972
      px      :     0.030657
      py      :     0.030657
 13 C s       :     2.828104  s :     2.828104
      pz      :     0.978337  p :     2.935011
      px      :     0.978337
      py      :     0.978337
      dz2     :     0.058132  d :     0.240339
      dxz     :     0.041358
      dyz     :     0.041358
      dx2y2   :     0.058132
      dxy     :     0.041358
 14 H s       :     0.904573  s :     0.904573
      pz      :     0.030657  p :     0.091972
      px      :     0.030657
      py      :     0.030657
 15 C s       :     2.828104  s :     2.828104
      pz      :     0.978337  p :     2.935011
      px      :     0.978337
      py      :     0.978337
      dz2     :     0.058132  d :     0.240339
      dxz     :     0.041358
      dyz     :     0.041358
      dx2y2   :     0.058132
      dxy     :     0.041358


                      *****************************
                      * MAYER POPULATION ANALYSIS *
                      *****************************

  NA   - Mulliken gross atomic population
  ZA   - Total nuclear charge
  QA   - Mulliken gross atomic charge
  VA   - Mayer's total valence
  BVA  - Mayer's bonded valence
  FA   - Mayer's free valence

  ATOM       NA         ZA         QA         VA         BVA        FA
  0 H      1.0012     1.0000    -0.0012     0.9962     0.9420     0.0542
  1 C      5.9988     6.0000     0.0012     3.9448     3.6216     0.3232
  2 H      1.0012     1.0000    -0.0012     0.9962     0.9420     0.0542
  3 C      5.9988     6.0000     0.0012     3.9448     3.6216     0.3232
  4 H      1.0012     1.0000    -0.0012     0.9962     0.9420     0.0542
  5 C      5.9988     6.0000     0.0012     3.9448     3.6216     0.3232
  6 H      1.0012     1.0000    -0.0012     0.9962     0.9420     0.0542
  7 C      5.9988     6.0000     0.0012     3.9448     3.6216     0.3232
  8 H      1.0012     1.0000    -0.0012     0.9962     0.9420     0.0542
  9 C      5.9988     6.0000     0.0012     3.9448     3.6216     0.3232
 10 H      1.0012     1.0000    -0.0012     0.9962     0.9420     0.0542
 11 C      5.9988     6.0000     0.0012     3.9448     3.6216     0.3232
 12 H      1.0012     1.0000    -0.0012     0.9962     0.9420     0.0542
 13 C      5.9988     6.0000     0.0012     3.9448     3.6216     0.3232
 14 H      1.0012     1.0000    -0.0012     0.9962     0.9420     0.0542
 15 C      5.9988     6.0000     0.0012     3.9448     3.6216     0.3232

  Mayer bond orders larger than 0.1
B(  0-H ,  1-C ) :   0.9382 B(  1-C ,  3-C ) :   0.9141 B(  1-C ,  5-C ) :   0.9141 
B(  1-C ,  7-C ) :   0.9141 B(  2-H ,  3-C ) :   0.9382 B(  3-C ,  9-C ) :   0.9141 
B(  3-C , 11-C ) :   0.9141 B(  4-H ,  5-C ) :   0.9382 B(  5-C ,  9-C ) :   0.9141 
B(  5-C , 13-C ) :   0.9141 B(  6-H ,  7-C ) :   0.9382 B(  7-C , 11-C ) :   0.9141 
B(  7-C , 13-C ) :   0.9141 B(  8-H ,  9-C ) :   0.9382 B(  9-C , 15-C ) :   0.9141 
B( 10-H , 11-C ) :   0.9382 B( 11-C , 15-C ) :   0.9141 B( 12-H , 13-C ) :   0.9382 
B( 13-C , 15-C ) :   0.9141 B( 14-H , 15-C ) :   0.9382 


-------
TIMINGS
-------

Total time                :   22.076 sec
Integral trafo            :    0.240 sec (  1.1%)
FC preparation            :    0.026 sec (  0.1%)
I/O of integrals          :    0.002 sec (  0.0%)
K(i,j) Operators          :    0.054 sec (  0.2%)
T(i,j) pair energies      :    0.005 sec (  0.0%)
V-calculation             :    0.008 sec (  0.0%)
V**(-1/2)                 :    0.018 sec (  0.1%)
Gamma(ia|P)               :    0.048 sec (  0.2%)
Gamma-Trafo               :    0.025 sec (  0.1%)
D(virtual)                :    0.003 sec (  0.0%)
D(internal)               :    0.032 sec (  0.1%)
W(virtual)                :    0.006 sec (  0.0%)
W(internal)               :    0.040 sec (  0.2%)
L(virtual)                :    0.558 sec (  2.5%)
L(internal)               :    0.002 sec (  0.0%)
G(D)                      :    1.803 sec (  8.2%)
G(Z)                      :    1.889 sec (  8.6%)
Z-Vector Solution         :    9.031 sec ( 40.9%)
3-Index Derivative        :    1.135 sec (  5.1%)
2-Index Derivative        :    0.014 sec (  0.1%)
Separable Gradient        :    7.037 sec ( 31.9%)


---------------------------------------
MP2 TOTAL ENERGY:     -308.483641054 Eh
---------------------------------------

-----------------------------------
NORM OF THE MP2 GRADIENT:  0.000005
-----------------------------------

-------------------------   --------------------
FINAL SINGLE POINT ENERGY      -308.483641053879
-------------------------   --------------------

                                *** OPTIMIZATION RUN DONE ***

                            ***************************************
                            *     ORCA property calculations      *
                            ***************************************

                                    ---------------------
                                    Active property flags
                                    ---------------------
   (+) Dipole Moment


------------------------------------------------------------------------------
                       ORCA ELECTRIC PROPERTIES CALCULATION
------------------------------------------------------------------------------

Dipole Moment Calculation                       ... on
Quadrupole Moment Calculation                   ... off
Polarizability Calculation                      ... off
GBWName                                         ... /home/vladimir/Quantum_Chemistry/ORCA/C8H8/cubane/optimize/MP2/cc-pVDZ-RI_sym/./cubane.gbw
Electron density file                           ... /home/vladimir/Quantum_Chemistry/ORCA/C8H8/cubane/optimize/MP2/cc-pVDZ-RI_sym/./cubane.scfp.tmp

-------------
DIPOLE MOMENT
-------------
                                X             Y             Z
Electronic contribution:      0.00000       0.00000      -0.00000
Nuclear contribution   :     -0.00000      -0.00000       0.00000
                        -----------------------------------------
Total Dipole Moment    :      0.00000      -0.00000       0.00000
                        -----------------------------------------
Magnitude (a.u.)       :      0.00000
Magnitude (Debye)      :      0.00000


                         *** MP2 UNRELAXED DENSITY ***

------------------------------------------------------------------------------
                       ORCA ELECTRIC PROPERTIES CALCULATION
------------------------------------------------------------------------------

Dipole Moment Calculation                       ... on
Quadrupole Moment Calculation                   ... off
Polarizability Calculation                      ... off
GBWName                                         ... /home/vladimir/Quantum_Chemistry/ORCA/C8H8/cubane/optimize/MP2/cc-pVDZ-RI_sym/./cubane.gbw
Electron density file                           ... /home/vladimir/Quantum_Chemistry/ORCA/C8H8/cubane/optimize/MP2/cc-pVDZ-RI_sym/./cubane.pmp2ur

-------------
DIPOLE MOMENT
-------------
                                X             Y             Z
Electronic contribution:      0.00000       0.00000      -0.00000
Nuclear contribution   :     -0.00000      -0.00000       0.00000
                        -----------------------------------------
Total Dipole Moment    :     -0.00000      -0.00000      -0.00000
                        -----------------------------------------
Magnitude (a.u.)       :      0.00000
Magnitude (Debye)      :      0.00000


                           *** MP2 RELAXED DENSITY ***

------------------------------------------------------------------------------
                       ORCA ELECTRIC PROPERTIES CALCULATION
------------------------------------------------------------------------------

Dipole Moment Calculation                       ... on
Quadrupole Moment Calculation                   ... off
Polarizability Calculation                      ... off
GBWName                                         ... /home/vladimir/Quantum_Chemistry/ORCA/C8H8/cubane/optimize/MP2/cc-pVDZ-RI_sym/./cubane.gbw
Electron density file                           ... /home/vladimir/Quantum_Chemistry/ORCA/C8H8/cubane/optimize/MP2/cc-pVDZ-RI_sym/./cubane.pmp2re

-------------
DIPOLE MOMENT
-------------
                                X             Y             Z
Electronic contribution:     -0.00000       0.00000      -0.00000
Nuclear contribution   :     -0.00000      -0.00000       0.00000
                        -----------------------------------------
Total Dipole Moment    :     -0.00000      -0.00000      -0.00000
                        -----------------------------------------
Magnitude (a.u.)       :      0.00000
Magnitude (Debye)      :      0.00000


Timings for individual modules:

Sum of individual times         ...      102.395 sec (=   1.707 min)
GTO integral calculation        ...        1.469 sec (=   0.024 min)   1.4 %
SCF iterations                  ...       32.969 sec (=   0.549 min)  32.2 %
MP2 module                      ...       67.817 sec (=   1.130 min)  66.2 %
Geometry relaxation             ...        0.140 sec (=   0.002 min)   0.1 %
                             ****ORCA TERMINATED NORMALLY****
TOTAL RUN TIME: 0 days 0 hours 1 minutes 42 seconds 938 msec
