
                                 *****************
                                 * O   R   C   A *
                                 *****************

           --- An Ab Initio, DFT and Semiempirical electronic structure package ---

                  #######################################################
                  #                        -***-                        #
                  #  Department of molecular theory and spectroscopy    #
                  #              Directorship: Frank Neese              #
                  # Max Planck Institute for Chemical Energy Conversion #
                  #                  D-45470 Muelheim/Ruhr              #
                  #                       Germany                       #
                  #                                                     #
                  #                  All rights reserved                #
                  #                        -***-                        #
                  #######################################################


                         Program Version 4.0.0 -  RELEASE  -


 With contributions from (in alphabetic order):
   Daniel Aravena         : Magnetic Properties
   Michael Atanasov       : Ab Initio Ligand Field Theory
   Ute Becker             : Parallelization
   Martin Brehm           : Molecular dynamics
   Dmytro Bykov           : SCF Hessian
   Vijay G. Chilkuri      : MRCI spin determinant printing
   Dipayan Datta          : RHF DLPNO-CCSD density
   Achintya Kumar Dutta   : EOM-CC, STEOM-CC
   Dmitry Ganyushin       : Spin-Orbit,Spin-Spin,Magnetic field MRCI
   Yang Guo               : DLPNO-NEVPT2, CIM, IAO-localization
   Andreas Hansen         : Spin unrestricted coupled pair/coupled cluster methods
   Lee Huntington         : MR-EOM, pCC
   Robert Izsak           : Overlap fitted RIJCOSX, COSX-SCS-MP3, EOM
   Christian Kollmar      : KDIIS, OOCD, Brueckner-CCSD(T), CCSD density
   Simone Kossmann        : Meta GGA functionals, TD-DFT gradient, OOMP2, MP2 Hessian
   Martin Krupicka        : AUTO-CI
   Dagmar Lenk            : GEPOL surface
   Dimitrios Liakos       : Extrapolation schemes; parallel MDCI
   Dimitrios Manganas     : ROCIS; embedding schemes
   Dimitrios Pantazis     : SARC Basis sets
   Taras Petrenko         : DFT Hessian,TD-DFT gradient, ASA, ECA, R-Raman, ABS, FL, XAS/XES, NRVS
   Peter Pinski           : DLPNO-MP2
   Christoph Reimann      : Effective Core Potentials
   Marius Retegan         : Local ZFS, SOC
   Christoph Riplinger    : Optimizer, TS searches, QM/MM, DLPNO-CCSD(T), (RO)-DLPNO pert. Triples
   Tobias Risthaus        : Range-separated hybrids, TD-DFT gradient, RPA, STAB
   Michael Roemelt        : Restricted open shell CIS
   Masaaki Saitow         : Open-shell DLPNO
   Barbara Sandhoefer     : DKH picture change effects
   Kantharuban Sivalingam : CASSCF convergence, NEVPT2, FIC-MRCI
   Georgi Stoychev        : AutoAux
   Boris Wezisla          : Elementary symmetry handling
   Frank Wennmohs         : Technical directorship


 We gratefully acknowledge several colleagues who have allowed us to
 interface, adapt or use parts of their codes:
   Stefan Grimme, W. Hujo, H. Kruse,             : VdW corrections, initial TS optimization,
                  C. Bannwarth                     DFT functionals, gCP, sTDA/sTD-DF
   Ed Valeev                                     : LibInt (2-el integral package), F12 methods
   Garnet Chan, S. Sharma, J. Yang, R. Olivares  : DMRG
   Ulf Ekstrom                                   : XCFun DFT Library
   Mihaly Kallay                                 : mrcc  (arbitrary order and MRCC methods)
   Jiri Pittner, Ondrej Demel                    : Mk-CCSD
   Frank Weinhold                                : gennbo (NPA and NBO analysis)
   Christopher J. Cramer and Donald G. Truhlar   : smd solvation model


 Your calculation uses the libint2 library for the computation of 2-el integrals
 For citations please refer to: http://libint.valeyev.net

 This ORCA versions uses:
   CBLAS   interface :  Fast vector & matrix operations
   LAPACKE interface :  Fast linear algebra routines
   SCALAPACK package :  Parallel linear algebra routines


Your calculation utilizes the basis: cc-pVQZ 
       H, B-Ne : Obtained from the ccRepo (grant-hill.group.shef.ac.uk/ccrepo) Feb. 2017
                 T. H. Dunning, Jr., J. Chem. Phys. 90, 1007 (1989)
            He : Obtained from the ccRepo (grant-hill.group.shef.ac.uk/ccrepo) Feb. 2017
                 D. E. Woon, T. H. Dunning, Jr., J. Chem. Phys. 100, 2975 (1994)
  Li-Be, Na-Mg : Obtained from the ccRepo (grant-hill.group.shef.ac.uk/ccrepo) Feb. 2017
                 B. P. Prascher, D. E. Woon, K. A. Peterson, T. H. Dunning, Jr., A. K. Wilson, Theor. Chem. Acc. 128, 69 (2011)
         Al-Ar : Obtained from the ccRepo (grant-hill.group.shef.ac.uk/ccrepo) Feb. 2017
                 D. E. Woon, T. H. Dunning, Jr., J. Chem. Phys. 98, 1358 (1993)
            Ca : Obtained from the Peterson Research Group Website (tyr0.chem.wsu.edu/~kipeters) Feb. 2017
                 J. Koput, K. A. Peterson, J. Phys. Chem. 106, 9595 (2002)
         Sc-Zn : Obtained from the ccRepo (grant-hill.group.shef.ac.uk/ccrepo) Feb. 2017
                 N. B. Balabanov, K. A. Peterson, J. Chem. Phys. 123, 064107 (2005)
                 N. B. Balabanov, K. A. Peterson, J. Chem. Phys. 125, 074110 (2006)
         Ga-Kr : Obtained from the ccRepo (grant-hill.group.shef.ac.uk/ccrepo) Feb. 2017
                 A. K. Wilson, D. E. Woon, K. A. Peterson, T. H. Dunning, Jr., J. Chem. Phys. 110, 7667 (1999)

Your calculation utilizes the auxiliary basis: cc-pVQZ/C 
  Obtained from the EMSL Basis Set Exchange (bse.pnl.gov) Feb. 2017
  H-He, B-F, Al-Ar, Ga-Kr : F. Weigend, A. Kohn, C. Hattig, J. Chem. Phys. 116, 3175 (2002)
             Li-Be, Na-Mg : C. Haettig, Phys. Chem. Chem. Phys. 7, 59 (2005)
                       Ne : C. Haettig, Phys. Chem. Chem. Phys. 7, 59 (2005)
                            F. Weigend, A. Kohn, C. Hattig, J. Chem. Phys. 116, 3175 (2002)
                    Sc-Zn : D. H. Bross, J. G. Hill, H. J. Werner, K. A. Peterson, J. Chem. Phys. 139, 094302 (2013)

================================================================================
                                        WARNINGS
                       Please study these warnings very carefully!
================================================================================


WARNING: Geometry optimizations can change the point-group symmetry!

Warning: TCutStore was < 0. Adjusted to Thresh (uncritical)

WARNING: The frozen-core approximation for MP2-gradient calculations is turned on by default.

WARNING: Geometry Optimization
  ===> : Switching off AutoStart
         For restart on a previous wavefunction, please use MOREAD

WARNING: Post HF methods need fully converged wavefunctions
  ===> : Setting SCFConvForced true
         You can overwrite this default with %scf ConvForced false 


INFO   : the flag for use of LIBINT has been found!

================================================================================
                                       INPUT FILE
================================================================================
NAME = /home/vladimir/Quantum_Chemistry/ORCA/C8H8/cubane/optimize/MP2/cc-pVQZ-RI/./cubane.inp
|  1> # ================================================================
|  2> # Orca input file for cubane RI-MP2/cc-pVQZ geometry optimization
|  3> # ================================================================
|  4> ! RHF RI-MP2 cc-pVQZ cc-pVQZ/C TightSCF TightOPT UseSym
|  5> ! PAL4
|  6> 
|  7> * xyz 0 1
|  8>   H      -1.409     -1.409     -1.409
|  9>   C      -0.782     -0.782     -0.782
| 10>   H      -1.409     -1.409      1.409
| 11>   C      -0.782     -0.782      0.782
| 12>   H      -1.409      1.409     -1.409
| 13>   C      -0.782      0.782     -0.782
| 14>   H       1.409     -1.409     -1.409
| 15>   C       0.782     -0.782     -0.782
| 16>   H      -1.409      1.409      1.409
| 17>   C      -0.782      0.782      0.782
| 18>   H       1.409     -1.409      1.409
| 19>   C       0.782     -0.782      0.782
| 20>   H       1.409      1.409     -1.409
| 21>   C       0.782      0.782     -0.782
| 22>   H       1.409      1.409      1.409
| 23>   C       0.782      0.782      0.782
| 24> *
| 25> 
| 26>                          ****END OF INPUT****
================================================================================

------------------------------------------------------------------------------
                            SYMMETRY HANDLING SETUP
------------------------------------------------------------------------------

------------------
SYMMETRY DETECTION
------------------
Preparing Data                    ... done
Detection Threshold:    SymThresh ... 1.0000e-04

Point Group will now be determined:
Moving molecule to center of mass ... done

POINT GROUP                       ... Oh

The coordinates will now be cleaned:
Moving to standard coord frame    ... done
(Changed one of the main axes to z and another to x)
Structure cleanup requested       ... yes
Selected point group              ... Oh
Cleaning Tolerance      SymThresh ... 1.0000e-04

Some missing point group data is constructed:
Constructing symmetry operations  ... done
Creating atom transfer table      ... done
Creating asymmetric unit          ... done

Cleaning coordinates              ... done

-----------------------------------------------
SYMMETRY-PERFECTED CARTESIAN COORDINATES (A.U.)
-----------------------------------------------
   0 H    -2.66262412   2.66262412   2.66262412 
   1 C    -1.47776584   1.47776584   1.47776584 
   2 H    -2.66262412  -2.66262412   2.66262412 
   3 C    -1.47776584  -1.47776584   1.47776584 
   4 H     2.66262412   2.66262412   2.66262412 
   5 C     1.47776584   1.47776584   1.47776584 
   6 H    -2.66262412   2.66262412  -2.66262412 
   7 C    -1.47776584   1.47776584  -1.47776584 
   8 H     2.66262412  -2.66262412   2.66262412 
   9 C     1.47776584  -1.47776584   1.47776584 
  10 H    -2.66262412  -2.66262412  -2.66262412 
  11 C    -1.47776584  -1.47776584  -1.47776584 
  12 H     2.66262412   2.66262412  -2.66262412 
  13 C     1.47776584   1.47776584  -1.47776584 
  14 H     2.66262412  -2.66262412  -2.66262412 
  15 C     1.47776584  -1.47776584  -1.47776584 

------------------
SYMMETRY REDUCTION
------------------
ORCA supports only abelian point groups.
It is now checked, if the determined point group is supported:
Point Group ( Oh    ) is          ... NOT supported
Reducing to abelian subgroup      ... D2h

(Re)building abelian point group:
Creating Character Table          ... done
Making direct product table       ... done
Constructing symmetry operations  ... done
Creating atom transfer table      ... done
Creating asymmetric unit          ... done

----------------------
ASYMMETRIC UNIT IN D2h
----------------------
  #  AT     MASS              COORDS (A.U.)             BAS
   0 H    1.0080  -2.66262412   2.66262412   2.66262412   0
   1 C   12.0110  -1.47776584   1.47776584   1.47776584   0

----------------------
SYMMETRY ADAPTED BASIS
----------------------
The coefficients for the symmetry adapted linear combinations (SALCS)
of basis functions will now be computed:
Number of basis functions         ...   680
Preparing memory                  ... done
Constructing Gamma(red)           ... done
Reducing Gamma(red)               ... done
Constructing SALCs                ... done
Checking SALC integrity           ... nothing suspicious
Normalizing SALCs                 ... done

Storing the symmetry object:
Symmetry file                     ... /home/vladimir/Quantum_Chemistry/ORCA/C8H8/cubane/optimize/MP2/cc-pVQZ-RI/./cubane.sym.tmp
Writing symmetry information      ... done

                       *****************************
                       * Geometry Optimization Run *
                       *****************************

Geometry optimization settings:
Update method            Update   .... BFGS
Choice of coordinates    CoordSys .... Redundant Internals
Initial Hessian          InHess   .... Almoef's Model

Convergence Tolerances:
Energy Change            TolE     ....  1.0000e-06 Eh
Max. Gradient            TolMAXG  ....  1.0000e-04 Eh/bohr
RMS Gradient             TolRMSG  ....  3.0000e-05 Eh/bohr
Max. Displacement        TolMAXD  ....  1.0000e-03 bohr
RMS Displacement         TolRMSD  ....  6.0000e-04 bohr

------------------------------------------------------------------------------
                        ORCA OPTIMIZATION COORDINATE SETUP
------------------------------------------------------------------------------

The optimization will be done in new redundant internal coordinates
Making redundant internal coordinates   ...  (new redundants) done
Evaluating the initial hessian          ...  (Almloef) done
Evaluating the coordinates              ...  done
Calculating the B-matrix                .... done
Calculating the G-matrix                .... done
Diagonalizing the G-matrix              .... done
The first mode is                       ....  134
The number of degrees of freedom        ....   42

    -----------------------------------------------------------------
                    Redundant Internal Coordinates


    -----------------------------------------------------------------
         Definition                    Initial Value    Approx d2E/dq
    -----------------------------------------------------------------
      1. B(C   1,H   0)                  1.0860         0.365436   
      2. B(C   3,H   2)                  1.0860         0.365436   
      3. B(C   3,C   1)                  1.5640         0.329710   
      4. B(C   5,H   4)                  1.0860         0.365436   
      5. B(C   5,C   1)                  1.5640         0.329710   
      6. B(C   7,H   6)                  1.0860         0.365436   
      7. B(C   7,C   1)                  1.5640         0.329710   
      8. B(C   9,H   8)                  1.0860         0.365436   
      9. B(C   9,C   5)                  1.5640         0.329710   
     10. B(C   9,C   3)                  1.5640         0.329710   
     11. B(C  11,H  10)                  1.0860         0.365436   
     12. B(C  11,C   7)                  1.5640         0.329710   
     13. B(C  11,C   3)                  1.5640         0.329710   
     14. B(C  13,C   7)                  1.5640         0.329710   
     15. B(C  13,C   5)                  1.5640         0.329710   
     16. B(C  13,H  12)                  1.0860         0.365436   
     17. B(C  15,H  14)                  1.0860         0.365436   
     18. B(C  15,C  13)                  1.5640         0.329710   
     19. B(C  15,C  11)                  1.5640         0.329710   
     20. B(C  15,C   9)                  1.5640         0.329710   
     21. A(H   0,C   1,C   3)          125.2644         0.318522   
     22. A(H   0,C   1,C   7)          125.2644         0.318522   
     23. A(C   3,C   1,C   5)           90.0000         0.348270   
     24. A(H   0,C   1,C   5)          125.2644         0.318522   
     25. A(C   5,C   1,C   7)           90.0000         0.348270   
     26. A(C   3,C   1,C   7)           90.0000         0.348270   
     27. A(C   1,C   3,C  11)           90.0000         0.348270   
     28. A(C   1,C   3,C   9)           90.0000         0.348270   
     29. A(C   1,C   3,H   2)          125.2644         0.318522   
     30. A(H   2,C   3,C  11)          125.2644         0.318522   
     31. A(C   9,C   3,C  11)           90.0000         0.348270   
     32. A(H   2,C   3,C   9)          125.2644         0.318522   
     33. A(H   4,C   5,C  13)          125.2644         0.318522   
     34. A(C   9,C   5,C  13)           90.0000         0.348270   
     35. A(H   4,C   5,C   9)          125.2644         0.318522   
     36. A(C   1,C   5,C  13)           90.0000         0.348270   
     37. A(C   1,C   5,C   9)           90.0000         0.348270   
     38. A(C   1,C   5,H   4)          125.2644         0.318522   
     39. A(C  11,C   7,C  13)           90.0000         0.348270   
     40. A(C   1,C   7,C  13)           90.0000         0.348270   
     41. A(H   6,C   7,C  11)          125.2644         0.318522   
     42. A(C   1,C   7,C  11)           90.0000         0.348270   
     43. A(C   1,C   7,H   6)          125.2644         0.318522   
     44. A(H   6,C   7,C  13)          125.2644         0.318522   
     45. A(C   3,C   9,H   8)          125.2644         0.318522   
     46. A(C   3,C   9,C   5)           90.0000         0.348270   
     47. A(H   8,C   9,C  15)          125.2644         0.318522   
     48. A(C   5,C   9,C  15)           90.0000         0.348270   
     49. A(C   3,C   9,C  15)           90.0000         0.348270   
     50. A(C   5,C   9,H   8)          125.2644         0.318522   
     51. A(C   7,C  11,H  10)          125.2644         0.318522   
     52. A(C   3,C  11,H  10)          125.2644         0.318522   
     53. A(C   3,C  11,C   7)           90.0000         0.348270   
     54. A(H  10,C  11,C  15)          125.2644         0.318522   
     55. A(C   7,C  11,C  15)           90.0000         0.348270   
     56. A(C   3,C  11,C  15)           90.0000         0.348270   
     57. A(C   5,C  13,C   7)           90.0000         0.348270   
     58. A(H  12,C  13,C  15)          125.2644         0.318522   
     59. A(C   7,C  13,C  15)           90.0000         0.348270   
     60. A(C   5,C  13,C  15)           90.0000         0.348270   
     61. A(C   7,C  13,H  12)          125.2644         0.318522   
     62. A(C   5,C  13,H  12)          125.2644         0.318522   
     63. A(C  13,C  15,H  14)          125.2644         0.318522   
     64. A(C  11,C  15,H  14)          125.2644         0.318522   
     65. A(C   9,C  15,H  14)          125.2644         0.318522   
     66. A(C  11,C  15,C  13)           90.0000         0.348270   
     67. A(C   9,C  15,C  13)           90.0000         0.348270   
     68. A(C   9,C  15,C  11)           90.0000         0.348270   
     69. D(C   9,C   3,C   1,C   5)     -0.0000         0.008854   
     70. D(C  11,C   3,C   1,C   5)    -90.0000         0.008854   
     71. D(H   2,C   3,C   1,C   5)    135.0000         0.008854   
     72. D(H   2,C   3,C   1,C   7)   -135.0000         0.008854   
     73. D(C  11,C   3,C   1,C   7)      0.0000         0.008854   
     74. D(C   9,C   3,C   1,H   0)   -135.0000         0.008854   
     75. D(C   9,C   3,C   1,C   7)     90.0000         0.008854   
     76. D(H   2,C   3,C   1,H   0)      0.0000         0.008854   
     77. D(C  11,C   3,C   1,H   0)    135.0000         0.008854   
     78. D(H   4,C   5,C   1,C   3)   -135.0000         0.008854   
     79. D(H   4,C   5,C   1,C   7)    135.0000         0.008854   
     80. D(H   4,C   5,C   1,H   0)      0.0000         0.008854   
     81. D(C  13,C   5,C   1,C   3)     90.0000         0.008854   
     82. D(C   9,C   5,C   1,H   0)    135.0000         0.008854   
     83. D(C  13,C   5,C   1,C   7)     -0.0000         0.008854   
     84. D(C   9,C   5,C   1,C   7)    -90.0000         0.008854   
     85. D(C  13,C   5,C   1,H   0)   -135.0000         0.008854   
     86. D(C   9,C   5,C   1,C   3)      0.0000         0.008854   
     87. D(C  11,C   7,C   1,C   5)     90.0000         0.008854   
     88. D(H   6,C   7,C   1,C   5)   -135.0000         0.008854   
     89. D(C  13,C   7,C   1,H   0)    135.0000         0.008854   
     90. D(C  11,C   7,C   1,C   3)     -0.0000         0.008854   
     91. D(H   6,C   7,C   1,C   3)    135.0000         0.008854   
     92. D(C  13,C   7,C   1,C   3)    -90.0000         0.008854   
     93. D(H   6,C   7,C   1,H   0)      0.0000         0.008854   
     94. D(C  13,C   7,C   1,C   5)      0.0000         0.008854   
     95. D(C  11,C   7,C   1,H   0)   -135.0000         0.008854   
     96. D(C   5,C   9,C   3,C   1)      0.0000         0.008854   
     97. D(H   8,C   9,C   3,C   1)    135.0000         0.008854   
     98. D(C  15,C   9,C   5,C  13)      0.0000         0.008854   
     99. D(C  15,C   9,C   5,H   4)   -135.0000         0.008854   
    100. D(H   8,C   9,C   5,C  13)    135.0000         0.008854   
    101. D(H   8,C   9,C   5,H   4)      0.0000         0.008854   
    102. D(H   8,C   9,C   5,C   1)   -135.0000         0.008854   
    103. D(C   5,C   9,C   3,C  11)     90.0000         0.008854   
    104. D(C  15,C   9,C   3,H   2)    135.0000         0.008854   
    105. D(C   3,C   9,C   5,C   1)     -0.0000         0.008854   
    106. D(C  15,C   9,C   3,C  11)     -0.0000         0.008854   
    107. D(C   3,C   9,C   5,C  13)    -90.0000         0.008854   
    108. D(C  15,C   9,C   3,C   1)    -90.0000         0.008854   
    109. D(H   8,C   9,C   3,C  11)   -135.0000         0.008854   
    110. D(C  15,C   9,C   5,C   1)     90.0000         0.008854   
    111. D(H   8,C   9,C   3,H   2)      0.0000         0.008854   
    112. D(C   3,C   9,C   5,H   4)    135.0000         0.008854   
    113. D(C   5,C   9,C   3,H   2)   -135.0000         0.008854   
    114. D(C  15,C  11,C   7,H   6)    135.0000         0.008854   
    115. D(C  15,C  11,C   7,C   1)    -90.0000         0.008854   
    116. D(H  10,C  11,C   7,C  13)   -135.0000         0.008854   
    117. D(H  10,C  11,C   7,C   1)    135.0000         0.008854   
    118. D(C   3,C  11,C   7,C  13)     90.0000         0.008854   
    119. D(C   3,C  11,C   7,H   6)   -135.0000         0.008854   
    120. D(C   3,C  11,C   7,C   1)      0.0000         0.008854   
    121. D(C  15,C  11,C   3,C   9)      0.0000         0.008854   
    122. D(C  15,C  11,C   3,C   1)     90.0000         0.008854   
    123. D(H  10,C  11,C   3,C   1)   -135.0000         0.008854   
    124. D(C   7,C  11,C   3,C   9)    -90.0000         0.008854   
    125. D(C   7,C  11,C   3,H   2)    135.0000         0.008854   
    126. D(H  10,C  11,C   7,H   6)      0.0000         0.008854   
    127. D(C   7,C  11,C   3,C   1)     -0.0000         0.008854   
    128. D(H  10,C  11,C   3,H   2)      0.0000         0.008854   
    129. D(H  10,C  11,C   3,C   9)    135.0000         0.008854   
    130. D(C  15,C  11,C   7,C  13)     -0.0000         0.008854   
    131. D(C  15,C  11,C   3,H   2)   -135.0000         0.008854   
    132. D(C  15,C  13,C   7,C  11)      0.0000         0.008854   
    133. D(C  15,C  13,C   7,H   6)   -135.0000         0.008854   
    134. D(H  12,C  13,C   7,C  11)    135.0000         0.008854   
    135. D(H  12,C  13,C   7,H   6)      0.0000         0.008854   
    136. D(H  12,C  13,C   7,C   1)   -135.0000         0.008854   
    137. D(C   5,C  13,C   7,H   6)    135.0000         0.008854   
    138. D(C   5,C  13,C   7,C   1)     -0.0000         0.008854   
    139. D(C  15,C  13,C   5,C   9)     -0.0000         0.008854   
    140. D(C  15,C  13,C   5,H   4)    135.0000         0.008854   
    141. D(C  15,C  13,C   5,C   1)    -90.0000         0.008854   
    142. D(C   5,C  13,C   7,C  11)    -90.0000         0.008854   
    143. D(H  12,C  13,C   5,C   9)   -135.0000         0.008854   
    144. D(H  12,C  13,C   5,H   4)      0.0000         0.008854   
    145. D(H  12,C  13,C   5,C   1)    135.0000         0.008854   
    146. D(C  15,C  13,C   7,C   1)     90.0000         0.008854   
    147. D(C   7,C  13,C   5,C   9)     90.0000         0.008854   
    148. D(C   7,C  13,C   5,H   4)   -135.0000         0.008854   
    149. D(C   7,C  13,C   5,C   1)      0.0000         0.008854   
    150. D(H  14,C  15,C  13,H  12)      0.0000         0.008854   
    151. D(H  14,C  15,C  13,C   5)   -135.0000         0.008854   
    152. D(C  11,C  15,C  13,H  12)   -135.0000         0.008854   
    153. D(C  11,C  15,C  13,C   7)     -0.0000         0.008854   
    154. D(C   9,C  15,C  13,H  12)    135.0000         0.008854   
    155. D(C   9,C  15,C  13,C   7)    -90.0000         0.008854   
    156. D(C   9,C  15,C  13,C   5)      0.0000         0.008854   
    157. D(H  14,C  15,C  11,H  10)      0.0000         0.008854   
    158. D(H  14,C  15,C  11,C   7)   -135.0000         0.008854   
    159. D(H  14,C  15,C  11,C   3)    135.0000         0.008854   
    160. D(C  13,C  15,C  11,H  10)    135.0000         0.008854   
    161. D(C  13,C  15,C  11,C   7)      0.0000         0.008854   
    162. D(C  13,C  15,C  11,C   3)    -90.0000         0.008854   
    163. D(C   9,C  15,C  11,H  10)   -135.0000         0.008854   
    164. D(C   9,C  15,C  11,C   7)     90.0000         0.008854   
    165. D(C   9,C  15,C  11,C   3)     -0.0000         0.008854   
    166. D(H  14,C  15,C   9,H   8)      0.0000         0.008854   
    167. D(H  14,C  15,C   9,C   5)    135.0000         0.008854   
    168. D(H  14,C  15,C   9,C   3)   -135.0000         0.008854   
    169. D(C  13,C  15,C   9,H   8)   -135.0000         0.008854   
    170. D(C  11,C  15,C  13,C   5)     90.0000         0.008854   
    171. D(C  13,C  15,C   9,C   5)     -0.0000         0.008854   
    172. D(C  13,C  15,C   9,C   3)     90.0000         0.008854   
    173. D(C  11,C  15,C   9,H   8)    135.0000         0.008854   
    174. D(H  14,C  15,C  13,C   7)    135.0000         0.008854   
    175. D(C  11,C  15,C   9,C   5)    -90.0000         0.008854   
    176. D(C  11,C  15,C   9,C   3)      0.0000         0.008854   
    -----------------------------------------------------------------

Number of atoms                         .... 16
Number of degrees of freedom            .... 176

         *************************************************************
         *                GEOMETRY OPTIMIZATION CYCLE   1            *
         *************************************************************
---------------------------------
CARTESIAN COORDINATES (ANGSTROEM)
---------------------------------
  H     -1.409000    1.409000    1.409000
  C     -0.782000    0.782000    0.782000
  H     -1.409000   -1.409000    1.409000
  C     -0.782000   -0.782000    0.782000
  H      1.409000    1.409000    1.409000
  C      0.782000    0.782000    0.782000
  H     -1.409000    1.409000   -1.409000
  C     -0.782000    0.782000   -0.782000
  H      1.409000   -1.409000    1.409000
  C      0.782000   -0.782000    0.782000
  H     -1.409000   -1.409000   -1.409000
  C     -0.782000   -0.782000   -0.782000
  H      1.409000    1.409000   -1.409000
  C      0.782000    0.782000   -0.782000
  H      1.409000   -1.409000   -1.409000
  C      0.782000   -0.782000   -0.782000

----------------------------
CARTESIAN COORDINATES (A.U.)
----------------------------
  NO LB      ZA    FRAG     MASS         X           Y           Z
   0 H     1.0000    0     1.008   -2.662624    2.662624    2.662624
   1 C     6.0000    0    12.011   -1.477766    1.477766    1.477766
   2 H     1.0000    0     1.008   -2.662624   -2.662624    2.662624
   3 C     6.0000    0    12.011   -1.477766   -1.477766    1.477766
   4 H     1.0000    0     1.008    2.662624    2.662624    2.662624
   5 C     6.0000    0    12.011    1.477766    1.477766    1.477766
   6 H     1.0000    0     1.008   -2.662624    2.662624   -2.662624
   7 C     6.0000    0    12.011   -1.477766    1.477766   -1.477766
   8 H     1.0000    0     1.008    2.662624   -2.662624    2.662624
   9 C     6.0000    0    12.011    1.477766   -1.477766    1.477766
  10 H     1.0000    0     1.008   -2.662624   -2.662624   -2.662624
  11 C     6.0000    0    12.011   -1.477766   -1.477766   -1.477766
  12 H     1.0000    0     1.008    2.662624    2.662624   -2.662624
  13 C     6.0000    0    12.011    1.477766    1.477766   -1.477766
  14 H     1.0000    0     1.008    2.662624   -2.662624   -2.662624
  15 C     6.0000    0    12.011    1.477766   -1.477766   -1.477766

--------------------------------
INTERNAL COORDINATES (ANGSTROEM)
--------------------------------
 H      0   0   0     0.000000000000     0.00000000     0.00000000
 C      1   0   0     1.085995856346     0.00000000     0.00000000
 H      2   1   0     2.363628354882   103.23089124     0.00000000
 C      3   2   1     1.085995856346    32.70211187   180.00000000
 H      2   1   3     2.363628354882   103.23089124   240.00000000
 C      5   2   1     1.085995856346    32.70211187   180.00000000
 H      2   1   3     2.363628354882   103.23089124   120.00000000
 C      7   2   1     1.085995856346    32.70211187   180.00000000
 H      4   3   2     2.363628354882   103.23089124   120.00000000
 C      9   4   3     1.085995856346    32.70211187   180.00000000
 H      4   3   2     2.363628354882   103.23089124   240.00000000
 C     11   4   3     1.085995856346    32.70211187   180.00000000
 H      6   5   2     2.363628354882   103.23089124   120.00000000
 C     13   6   5     1.085995856346    32.70211187   180.00000000
 H     10   9   4     2.363628354882   103.23089124   240.00000000
 C     15  10   9     1.085995856346    32.70211187   180.00000000

---------------------------
INTERNAL COORDINATES (A.U.)
---------------------------
 H      0   0   0     0.000000000000     0.00000000     0.00000000
 C      1   0   0     2.052234751067     0.00000000     0.00000000
 H      2   1   0     4.466610273097   103.23089124     0.00000000
 C      3   2   1     2.052234751067    32.70211187   180.00000000
 H      2   1   3     4.466610273097   103.23089124   240.00000000
 C      5   2   1     2.052234751067    32.70211187   180.00000000
 H      2   1   3     4.466610273097   103.23089124   120.00000000
 C      7   2   1     2.052234751067    32.70211187   180.00000000
 H      4   3   2     4.466610273097   103.23089124   120.00000000
 C      9   4   3     2.052234751067    32.70211187   180.00000000
 H      4   3   2     4.466610273097   103.23089124   240.00000000
 C     11   4   3     2.052234751067    32.70211187   180.00000000
 H      6   5   2     4.466610273097   103.23089124   120.00000000
 C     13   6   5     2.052234751067    32.70211187   180.00000000
 H     10   9   4     4.466610273097   103.23089124   240.00000000
 C     15  10   9     2.052234751067    32.70211187   180.00000000

---------------------
BASIS SET INFORMATION
---------------------
There are 2 groups of distinct atoms

 Group   1 Type H   : 6s3p2d1f contracted to 4s3p2d1f pattern {3111/111/11/1}
 Group   2 Type C   : 21s6p3d2f1g contracted to 5s4p3d2f1g pattern {99111/3111/111/11/1}

Atom   0H    basis set group =>   1
Atom   1C    basis set group =>   2
Atom   2H    basis set group =>   1
Atom   3C    basis set group =>   2
Atom   4H    basis set group =>   1
Atom   5C    basis set group =>   2
Atom   6H    basis set group =>   1
Atom   7C    basis set group =>   2
Atom   8H    basis set group =>   1
Atom   9C    basis set group =>   2
Atom  10H    basis set group =>   1
Atom  11C    basis set group =>   2
Atom  12H    basis set group =>   1
Atom  13C    basis set group =>   2
Atom  14H    basis set group =>   1
Atom  15C    basis set group =>   2

INFORMATION: There is an auxiliary basis set but the global RI flag is NOT set

-------------------------------
AUXILIARY BASIS SET INFORMATION
-------------------------------
There are 2 groups of distinct atoms

 Group   1 Type H   : 5s4p3d2f1g contracted to 5s4p3d2f1g pattern {11111/1111/111/11/1}
 Group   2 Type C   : 8s7p6d5f3g1h contracted to 8s7p6d5f3g1h pattern {11111111/1111111/111111/11111/111/1}

Atom   0H    basis set group =>   1
Atom   1C    basis set group =>   2
Atom   2H    basis set group =>   1
Atom   3C    basis set group =>   2
Atom   4H    basis set group =>   1
Atom   5C    basis set group =>   2
Atom   6H    basis set group =>   1
Atom   7C    basis set group =>   2
Atom   8H    basis set group =>   1
Atom   9C    basis set group =>   2
Atom  10H    basis set group =>   1
Atom  11C    basis set group =>   2
Atom  12H    basis set group =>   1
Atom  13C    basis set group =>   2
Atom  14H    basis set group =>   1
Atom  15C    basis set group =>   2


           ************************************************************
           *        Program running with 4 parallel MPI-processes     *
           *              working on a common directory               *
           ************************************************************
------------------------------------------------------------------------------
                           ORCA GTO INTEGRAL CALCULATION
------------------------------------------------------------------------------

                         BASIS SET STATISTICS AND STARTUP INFO

 # of primitive gaussian shells          ...  360
 # of primitive gaussian functions       ...  872
 # of contracted shells                  ...  200
 # of contracted basis functions         ...  680
 Highest angular momentum                ...    4
 Maximum contraction depth               ...    9
 Integral package used                   ... LIBINT
 Integral threshhold            Thresh   ...  2.500e-11
 Primitive cut-off              TCut     ...  2.500e-12


------------------------------ INTEGRAL EVALUATION ----------------------------


 * One electron integrals 
 Pre-screening matrix                    ... done
 Shell pair data                         ... done (   0.006 sec)



           ************************************************************
           *        Program running with 4 parallel MPI-processes     *
           *              working on a common directory               *
           ************************************************************
-------------------------------------------------------------------------------
                                 ORCA SCF
-------------------------------------------------------------------------------

------------
SCF SETTINGS
------------
Hamiltonian:
 Ab initio Hamiltonian  Method          .... Hartree-Fock(GTOs)


General Settings:
 Integral files         IntName         .... /home/vladimir/Quantum_Chemistry/ORCA/C8H8/cubane/optimize/MP2/cc-pVQZ-RI/./cubane
 Hartree-Fock type      HFTyp           .... RHF
 Total Charge           Charge          ....    0
 Multiplicity           Mult            ....    1
 Number of Electrons    NEL             ....   56
 Basis Dimension        Dim             ....  680
 Nuclear Repulsion      ENuc            ....    368.3580453554 Eh

 Symmetry handling      UseSym         .... ON
 Point group                           .... D2h
 Used point group                      .... D2h
 Number of irreps                      .... 8
   Irrep   Ag has   85 symmetry adapted basis functions (ofs=   0)
   Irrep  B1g has   85 symmetry adapted basis functions (ofs=  85)
   Irrep  B2g has   85 symmetry adapted basis functions (ofs= 170)
   Irrep  B3g has   85 symmetry adapted basis functions (ofs= 255)
   Irrep   Au has   85 symmetry adapted basis functions (ofs= 340)
   Irrep  B1u has   85 symmetry adapted basis functions (ofs= 425)
   Irrep  B2u has   85 symmetry adapted basis functions (ofs= 510)
   Irrep  B3u has   85 symmetry adapted basis functions (ofs= 595)

Convergence Acceleration:
 DIIS                   CNVDIIS         .... on
   Start iteration      DIISMaxIt       ....    12
   Startup error        DIISStart       ....  0.200000
   # of expansion vecs  DIISMaxEq       ....     5
   Bias factor          DIISBfac        ....   1.050
   Max. coefficient     DIISMaxC        ....  10.000
 Newton-Raphson         CNVNR           .... off
 SOSCF                  CNVSOSCF        .... on
   Start iteration      SOSCFMaxIt      ....   150
   Startup grad/error   SOSCFStart      ....  0.003300
 Level Shifting         CNVShift        .... on
   Level shift para.    LevelShift      ....    0.2500
   Turn off err/grad.   ShiftErr        ....    0.0010
 Zerner damping         CNVZerner       .... off
 Static damping         CNVDamp         .... on
   Fraction old density DampFac         ....    0.7000
   Max. Damping (<1)    DampMax         ....    0.9800
   Min. Damping (>=0)   DampMin         ....    0.0000
   Turn off err/grad.   DampErr         ....    0.1000
 Fernandez-Rico         CNVRico         .... off

SCF Procedure:
 Maximum # iterations   MaxIter         ....   125
 SCF integral mode      SCFMode         .... Direct
   Integral package                     .... LIBINT
 Reset frequeny         DirectResetFreq ....    20
 Integral Threshold     Thresh          ....  2.500e-11 Eh
 Primitive CutOff       TCut            ....  2.500e-12 Eh

Convergence Tolerance:
 Convergence Check Mode ConvCheckMode   .... Total+1el-Energy
 Convergence forced     ConvForced      .... 1
 Energy Change          TolE            ....  1.000e-08 Eh
 1-El. energy change                    ....  1.000e-05 Eh
 Orbital Gradient       TolG            ....  1.000e-05
 Orbital Rotation angle TolX            ....  1.000e-05
 DIIS Error             TolErr          ....  5.000e-07


Diagonalization of the overlap matrix:
Smallest eigenvalue                        ... 1.229e-06
Time for diagonalization                   ...    0.334 sec
Threshold for overlap eigenvalues          ... 1.000e-08
Number of eigenvalues below threshold      ... 0
Time for construction of square roots      ...    0.047 sec
Producing symmetrization matrix            ... done (   0.032 sec)
Total time needed                          ...    0.416 sec

-------------------
DFT GRID GENERATION
-------------------

General Integration Accuracy     IntAcc      ...  4.340
Radial Grid Type                 RadialGrid  ... Gauss-Chebyshev
Angular Grid (max. acc.)         AngularGrid ... Lebedev-110
Angular grid pruning method      GridPruning ... 3 (G Style)
Weight generation scheme         WeightScheme... Becke
Basis function cutoff            BFCut       ...    1.0000e-11
Integration weight cutoff        WCut        ...    1.0000e-14
Grids for H and He will be reduced by one unit

# of grid points (after initial pruning)     ...  19600 (   0.0 sec)
# of grid points (after weights+screening)   ...  17576 (   0.0 sec)
nearest neighbour list constructed           ...    0.0 sec
Grid point re-assignment to atoms done       ...    0.0 sec
Grid point division into batches done        ...    0.0 sec
Reduced shell lists constructed in    0.1 sec

Total number of grid points                  ...    17576
Total number of batches                      ...      288
Average number of points per batch           ...       61
Average number of grid points per atom       ...     1098
Average number of shells per batch           ...   138.63 (69.32%)
Average number of basis functions per batch  ...   474.71 (69.81%)
Average number of large shells per batch     ...   107.68 (77.68%)
Average number of large basis fcns per batch ...   360.62 (75.97%)
Maximum spatial batch extension              ...  20.35, 17.47, 20.17 au
Average spatial batch extension              ...   0.91,  0.96,  0.87 au

Time for grid setup =    0.093 sec

------------------------------
INITIAL GUESS: MODEL POTENTIAL
------------------------------
Loading Hartree-Fock densities                     ... done
Calculating cut-offs                               ... done
Setting up the integral package                    ... done
Initializing the effective Hamiltonian             ... done
Starting the Coulomb interaction                   ... done (   0.2 sec)
Reading the grid                                   ... done
Mapping shells                                     ... done
Starting the XC term evaluation                    ... done (   0.2 sec)
done (   0.0 sec)
Diagonalizing the Hamiltonian                      ... done (   0.0 sec)
Back transforming the eigenvectors                 ... done (   0.0 sec)
Now organizing SCF variables                       ... done
The symmetry of the initial guess is 1-Ag
Irrep occupations for operator 0
    Ag -    5
   B1g -    3
   B2g -    3
   B3g -    3
    Au -    2
   B1u -    4
   B2u -    4
   B3u -    4
                      ------------------
                      INITIAL GUESS DONE (   0.7 sec)
                      ------------------
--------------
SCF ITERATIONS
--------------
ITER       Energy         Delta-E        Max-DP      RMS-DP      [F,P]     Damp
               ***  Starting incremental Fock matrix formation  ***
  0   -307.1736409332   0.000000000000 0.07735534  0.00101985  0.1502270 0.7000
  1   -307.2871285818  -0.113487648534 0.04903025  0.00062794  0.1037216 0.7000
                               ***Turning on DIIS***
  2   -307.3539622187  -0.066833636920 0.10750027  0.00142145  0.0773992 0.0000
  3   -307.1400492491   0.213912969593 0.01136420  0.00025500  0.0196817 0.0000
  4   -307.8302449950  -0.690195745943 0.00333031  0.00004991  0.0071109 0.0000
                      *** Initiating the SOSCF procedure ***
                           *** Shutting down DIIS ***
                      *** Re-Reading the Fockian *** 
                      *** Removing any level shift *** 
ITER      Energy       Delta-E        Grad      Rot      Max-DP    RMS-DP
  5   -307.50981161   0.3204333834  0.001196  0.001196  0.001670  0.000026
               *** Restarting incremental Fock matrix formation ***
  6   -307.50335824   0.0064533747  0.000165  0.000231  0.000619  0.000008
  7   -307.50335975  -0.0000015096  0.000067  0.000116  0.000342  0.000005
  8   -307.50335997  -0.0000002227  0.000035  0.000026  0.000019  0.000000
  9   -307.50335999  -0.0000000237  0.000006  0.000007  0.000016  0.000000
                  ***Gradient check signals convergence***
              ***Rediagonalizing the Fockian in SOSCF/NRSCF***

               *****************************************************
               *                     SUCCESS                       *
               *           SCF CONVERGED AFTER  10 CYCLES          *
               *****************************************************


----------------
TOTAL SCF ENERGY
----------------

Total Energy       :         -307.50336000 Eh           -8367.59183 eV

Components:
Nuclear Repulsion  :          368.35804536 Eh           10023.53200 eV
Electronic Energy  :         -675.86140535 Eh          -18391.12383 eV
One Electron Energy:        -1146.10307472 Eh          -31187.05018 eV
Two Electron Energy:          470.24166937 Eh           12795.92636 eV

Virial components:
Potential Energy   :         -614.75603826 Eh          -16728.36225 eV
Kinetic Energy     :          307.25267827 Eh            8360.77043 eV
Virial Ratio       :            2.00081588


---------------
SCF CONVERGENCE
---------------

  Last Energy change         ...   -2.7892e-09  Tolerance :   1.0000e-08
  Last MAX-Density change    ...    6.0709e-05  Tolerance :   1.0000e-07
  Last RMS-Density change    ...    7.0287e-07  Tolerance :   5.0000e-09
  Last Orbital Gradient      ...    4.2702e-07  Tolerance :   1.0000e-05
  Last Orbital Rotation      ...    1.0036e-06  Tolerance :   1.0000e-05

             **** THE GBW FILE WAS UPDATED (/home/vladimir/Quantum_Chemistry/ORCA/C8H8/cubane/optimize/MP2/cc-pVQZ-RI/./cubane.gbw) ****
             **** DENSITY FILE WAS UPDATED (/home/vladimir/Quantum_Chemistry/ORCA/C8H8/cubane/optimize/MP2/cc-pVQZ-RI/./cubane.scfp.tmp) ****
             **** ENERGY FILE WAS UPDATED (/home/vladimir/Quantum_Chemistry/ORCA/C8H8/cubane/optimize/MP2/cc-pVQZ-RI/./cubane.en.tmp) ****
----------------
ORBITAL ENERGIES
----------------

  NO   OCC          E(Eh)            E(eV)    Irrep 
   0   2.0000     -11.219248      -305.2913    1-Ag
   1   2.0000     -11.218744      -305.2775    1-B2u
   2   2.0000     -11.218744      -305.2775    1-B3u
   3   2.0000     -11.218744      -305.2775    1-B1u
   4   2.0000     -11.218228      -305.2635    1-B1g
   5   2.0000     -11.218228      -305.2635    1-B3g
   6   2.0000     -11.218228      -305.2635    1-B2g
   7   2.0000     -11.217698      -305.2491    1-Au
   8   2.0000      -1.246031       -33.9062    2-Ag
   9   2.0000      -0.979119       -26.6432    2-B1u
  10   2.0000      -0.979119       -26.6432    2-B2u
  11   2.0000      -0.979119       -26.6432    2-B3u
  12   2.0000      -0.767418       -20.8825    2-B3g
  13   2.0000      -0.767418       -20.8825    2-B2g
  14   2.0000      -0.767418       -20.8825    2-B1g
  15   2.0000      -0.710929       -19.3454    3-Ag
  16   2.0000      -0.640650       -17.4330    2-Au
  17   2.0000      -0.580751       -15.8031    4-Ag
  18   2.0000      -0.580751       -15.8031    5-Ag
  19   2.0000      -0.580386       -15.7931    3-B1u
  20   2.0000      -0.580386       -15.7931    3-B2u
  21   2.0000      -0.580386       -15.7931    3-B3u
  22   2.0000      -0.390878       -10.6363    4-B2u
  23   2.0000      -0.390878       -10.6363    4-B3u
  24   2.0000      -0.390878       -10.6363    4-B1u
  25   2.0000      -0.383161       -10.4264    3-B3g
  26   2.0000      -0.383161       -10.4264    3-B2g
  27   2.0000      -0.383161       -10.4264    3-B1g
  28   0.0000       0.116253         3.1634    6-Ag
  29   0.0000       0.131327         3.5736    5-B1u
  30   0.0000       0.131327         3.5736    5-B2u
  31   0.0000       0.131327         3.5736    5-B3u
  32   0.0000       0.160990         4.3808    4-B1g
  33   0.0000       0.160990         4.3808    4-B3g
  34   0.0000       0.160990         4.3808    4-B2g
  35   0.0000       0.180030         4.8989    3-Au
  36   0.0000       0.197430         5.3723    6-B2u
  37   0.0000       0.197430         5.3723    6-B3u
  38   0.0000       0.197430         5.3723    6-B1u
  39   0.0000       0.273235         7.4351    7-Ag
  40   0.0000       0.273235         7.4351    8-Ag
  41   0.0000       0.300341         8.1727    5-B1g
  42   0.0000       0.300342         8.1727    5-B3g
  43   0.0000       0.300342         8.1727    5-B2g
  44   0.0000       0.322077         8.7642    6-B1g
  45   0.0000       0.322077         8.7642    6-B3g
  46   0.0000       0.322077         8.7642    6-B2g
  47   0.0000       0.323433         8.8011    7-B1u
  48   0.0000       0.323433         8.8011    7-B2u
  49   0.0000       0.323433         8.8011    7-B3u
  50   0.0000       0.335053         9.1172    9-Ag
  51   0.0000       0.395474        10.7614    8-B2u
  52   0.0000       0.395474        10.7614    8-B3u
  53   0.0000       0.395474        10.7614    8-B1u
  54   0.0000       0.419353        11.4112   10-Ag
  55   0.0000       0.432615        11.7721    4-Au
  56   0.0000       0.432615        11.7721    5-Au
  57   0.0000       0.435623        11.8539    6-Au
  58   0.0000       0.464772        12.6471    9-B1u
  59   0.0000       0.464772        12.6471    9-B2u
  60   0.0000       0.464772        12.6471    9-B3u
  61   0.0000       0.486583        13.2406    7-B1g
  62   0.0000       0.486583        13.2406    7-B3g
  63   0.0000       0.486583        13.2406    7-B2g
  64   0.0000       0.509456        13.8630    8-B1g
  65   0.0000       0.509456        13.8630    8-B3g
  66   0.0000       0.509456        13.8630    8-B2g
  67   0.0000       0.535757        14.5787   10-B2u
  68   0.0000       0.535757        14.5787   10-B3u
  69   0.0000       0.535757        14.5787   10-B1u
  70   0.0000       0.581894        15.8342    9-B1g
  71   0.0000       0.581895        15.8342    9-B3g
  72   0.0000       0.581895        15.8342    9-B2g
  73   0.0000       0.594970        16.1900   11-Ag
  74   0.0000       0.594970        16.1900   12-Ag
  75   0.0000       0.630795        17.1648    7-Au
  76   0.0000       0.630795        17.1648    8-Au
  77   0.0000       0.741733        20.1836   10-B3g
  78   0.0000       0.741733        20.1836   10-B2g
  79   0.0000       0.741733        20.1836   10-B1g
  80   0.0000       0.742500        20.2045   11-B3u
  81   0.0000       0.742500        20.2045   11-B2u
  82   0.0000       0.742500        20.2045   11-B1u
  83   0.0000       0.759531        20.6679    9-Au
  84   0.0000       0.842047        22.9133   13-Ag
  85   0.0000       0.855535        23.2803   12-B2u
  86   0.0000       0.855535        23.2803   12-B3u
  87   0.0000       0.855535        23.2803   12-B1u
  88   0.0000       0.865663        23.5559   14-Ag
  89   0.0000       0.865663        23.5559   15-Ag
  90   0.0000       0.889514        24.2049   13-B1u
  91   0.0000       0.889514        24.2049   13-B2u
  92   0.0000       0.889514        24.2049   13-B3u
  93   0.0000       0.895788        24.3756   11-B1g
  94   0.0000       0.895788        24.3756   11-B3g
  95   0.0000       0.895788        24.3756   11-B2g
  96   0.0000       0.923486        25.1293   12-B1g
  97   0.0000       0.923486        25.1293   12-B3g
  98   0.0000       0.923486        25.1293   12-B2g
  99   0.0000       0.934851        25.4386   14-B2u
 100   0.0000       0.934851        25.4386   14-B3u
 101   0.0000       0.934851        25.4386   14-B1u
 102   0.0000       0.956722        26.0337   16-Ag
 103   0.0000       1.047242        28.4969   10-Au
 104   0.0000       1.048427        28.5292   15-B3u
 105   0.0000       1.048427        28.5292   15-B2u
 106   0.0000       1.048428        28.5292   15-B1u
 107   0.0000       1.056389        28.7458   11-Au
 108   0.0000       1.059638        28.8342   17-Ag
 109   0.0000       1.059638        28.8342   18-Ag
 110   0.0000       1.059906        28.8415   13-B1g
 111   0.0000       1.059906        28.8415   13-B3g
 112   0.0000       1.059906        28.8415   13-B2g
 113   0.0000       1.072298        29.1787   14-B1g
 114   0.0000       1.072298        29.1787   14-B3g
 115   0.0000       1.072298        29.1787   14-B2g
 116   0.0000       1.083780        29.4911   16-B2u
 117   0.0000       1.083780        29.4911   16-B3u
 118   0.0000       1.083780        29.4911   16-B1u
 119   0.0000       1.098681        29.8966   12-Au
 120   0.0000       1.098681        29.8966   13-Au
 121   0.0000       1.114893        30.3378   19-Ag
 122   0.0000       1.147866        31.2350   15-B1g
 123   0.0000       1.147866        31.2350   15-B2g
 124   0.0000       1.147866        31.2350   15-B3g
 125   0.0000       1.170557        31.8525   17-B1u
 126   0.0000       1.170557        31.8525   17-B3u
 127   0.0000       1.170557        31.8525   17-B2u
 128   0.0000       1.223525        33.2938   18-B3u
 129   0.0000       1.223525        33.2938   18-B2u
 130   0.0000       1.223525        33.2938   18-B1u
 131   0.0000       1.284008        34.9396   16-B3g
 132   0.0000       1.284008        34.9396   16-B2g
 133   0.0000       1.284008        34.9396   16-B1g
 134   0.0000       1.295929        35.2640   14-Au
 135   0.0000       1.295929        35.2640   15-Au
 136   0.0000       1.325121        36.0584   19-B2u
 137   0.0000       1.325121        36.0584   19-B3u
 138   0.0000       1.325122        36.0584   19-B1u
 139   0.0000       1.407918        38.3114   16-Au
 140   0.0000       1.461091        39.7583   20-Ag
 141   0.0000       1.475333        40.1459   17-B3g
 142   0.0000       1.475333        40.1459   17-B2g
 143   0.0000       1.475335        40.1459   17-B1g
 144   0.0000       1.478526        40.2327   18-B3g
 145   0.0000       1.478526        40.2327   18-B2g
 146   0.0000       1.478527        40.2328   18-B1g
 147   0.0000       1.567892        42.6645   21-Ag
 148   0.0000       1.567892        42.6645   22-Ag
 149   0.0000       1.573381        42.8139   19-B1g
 150   0.0000       1.573381        42.8139   19-B3g
 151   0.0000       1.573381        42.8139   19-B2g
 152   0.0000       1.698186        46.2100   17-Au
 153   0.0000       1.698186        46.2100   18-Au
 154   0.0000       1.774205        48.2786   20-B2u
 155   0.0000       1.774205        48.2786   20-B3u
 156   0.0000       1.774205        48.2786   20-B1u
 157   0.0000       1.780074        48.4383   23-Ag
 158   0.0000       1.846683        50.2508   20-B3g
 159   0.0000       1.846683        50.2508   20-B2g
 160   0.0000       1.846683        50.2508   20-B1g
 161   0.0000       1.860711        50.6325   19-Au
 162   0.0000       1.877440        51.0877   21-B2u
 163   0.0000       1.877440        51.0877   21-B3u
 164   0.0000       1.877440        51.0877   21-B1u
 165   0.0000       1.890829        51.4521   24-Ag
 166   0.0000       1.890829        51.4521   25-Ag
 167   0.0000       1.904764        51.8313   22-B1u
 168   0.0000       1.904764        51.8313   22-B3u
 169   0.0000       1.904764        51.8313   22-B2u
 170   0.0000       2.026985        55.1571   23-B3u
 171   0.0000       2.026985        55.1571   23-B2u
 172   0.0000       2.026985        55.1571   23-B1u
 173   0.0000       2.041890        55.5627   20-Au
 174   0.0000       2.053096        55.8676   21-B1g
 175   0.0000       2.053096        55.8676   21-B3g
 176   0.0000       2.053096        55.8676   21-B2g
 177   0.0000       2.053458        55.8774   26-Ag
 178   0.0000       2.053458        55.8774   27-Ag
 179   0.0000       2.061150        56.0867   24-B2u
 180   0.0000       2.061150        56.0867   24-B3u
 181   0.0000       2.061150        56.0867   24-B1u
 182   0.0000       2.061261        56.0898   28-Ag
 183   0.0000       2.099595        57.1329   25-B3u
 184   0.0000       2.099595        57.1329   25-B2u
 185   0.0000       2.099595        57.1329   25-B1u
 186   0.0000       2.109625        57.4058   22-B2g
 187   0.0000       2.109625        57.4058   22-B3g
 188   0.0000       2.109625        57.4058   22-B1g
 189   0.0000       2.153182        58.5911   23-B3g
 190   0.0000       2.153182        58.5911   23-B2g
 191   0.0000       2.153182        58.5911   23-B1g
 192   0.0000       2.188302        59.5467   21-Au
 193   0.0000       2.188302        59.5467   22-Au
 194   0.0000       2.254519        61.3486   26-B1u
 195   0.0000       2.254519        61.3486   26-B2u
 196   0.0000       2.254519        61.3486   26-B3u
 197   0.0000       2.254797        61.3562   24-B2g
 198   0.0000       2.254797        61.3562   24-B3g
 199   0.0000       2.254798        61.3562   24-B1g
 200   0.0000       2.360420        64.2303   27-B2u
 201   0.0000       2.360420        64.2303   27-B1u
 202   0.0000       2.360420        64.2303   27-B3u
 203   0.0000       2.362895        64.2976   29-Ag
 204   0.0000       2.383618        64.8615   30-Ag
 205   0.0000       2.383618        64.8615   31-Ag
 206   0.0000       2.406153        65.4747   25-B1g
 207   0.0000       2.406153        65.4747   25-B3g
 208   0.0000       2.406153        65.4747   25-B2g
 209   0.0000       2.408355        65.5347   23-Au
 210   0.0000       2.408355        65.5347   24-Au
 211   0.0000       2.420501        65.8652   28-B2u
 212   0.0000       2.420501        65.8652   28-B3u
 213   0.0000       2.420501        65.8652   28-B1u
 214   0.0000       2.489058        67.7307   29-B3u
 215   0.0000       2.489058        67.7307   29-B2u
 216   0.0000       2.489058        67.7307   29-B1u
 217   0.0000       2.556695        69.5712   32-Ag
 218   0.0000       2.594033        70.5872   33-Ag
 219   0.0000       2.594033        70.5872   34-Ag
 220   0.0000       2.599330        70.7314   30-B2u
 221   0.0000       2.599330        70.7314   30-B3u
 222   0.0000       2.599330        70.7314   30-B1u
 223   0.0000       2.604222        70.8645   26-B3g
 224   0.0000       2.604222        70.8645   26-B2g
 225   0.0000       2.604222        70.8645   26-B1g
 226   0.0000       2.608894        70.9916   27-B3g
 227   0.0000       2.608894        70.9916   27-B2g
 228   0.0000       2.608896        70.9917   27-B1g
 229   0.0000       2.658160        72.3322   25-Au
 230   0.0000       2.720810        74.0370   31-B2u
 231   0.0000       2.720810        74.0370   31-B3u
 232   0.0000       2.720810        74.0370   31-B1u
 233   0.0000       2.728387        74.2432   28-B1g
 234   0.0000       2.728387        74.2432   28-B3g
 235   0.0000       2.728387        74.2432   28-B2g
 236   0.0000       2.787707        75.8574   32-B3u
 237   0.0000       2.787707        75.8574   32-B2u
 238   0.0000       2.787707        75.8574   32-B1u
 239   0.0000       2.818645        76.6992   29-B1g
 240   0.0000       2.818645        76.6992   29-B3g
 241   0.0000       2.818645        76.6992   29-B2g
 242   0.0000       2.831453        77.0477   35-Ag
 243   0.0000       2.904618        79.0387   30-B3g
 244   0.0000       2.904618        79.0387   30-B2g
 245   0.0000       2.904619        79.0387   30-B1g
 246   0.0000       2.918244        79.4094   33-B2u
 247   0.0000       2.918244        79.4094   33-B3u
 248   0.0000       2.918244        79.4094   33-B1u
 249   0.0000       2.926372        79.6306   34-B3u
 250   0.0000       2.926372        79.6306   34-B2u
 251   0.0000       2.926372        79.6306   34-B1u
 252   0.0000       2.990873        81.3858   26-Au
 253   0.0000       2.990873        81.3858   27-Au
 254   0.0000       3.005181        81.7751   28-Au
 255   0.0000       3.026308        82.3500   31-B2g
 256   0.0000       3.026308        82.3500   31-B3g
 257   0.0000       3.026309        82.3500   31-B1g
 258   0.0000       3.035427        82.5982   36-Ag
 259   0.0000       3.035427        82.5982   37-Ag
 260   0.0000       3.098289        84.3087   38-Ag
 261   0.0000       3.109480        84.6132   35-B3u
 262   0.0000       3.109480        84.6132   35-B2u
 263   0.0000       3.109481        84.6133   35-B1u
 264   0.0000       3.156489        85.8924   39-Ag
 265   0.0000       3.156489        85.8924   40-Ag
 266   0.0000       3.166957        86.1773   32-B1g
 267   0.0000       3.166957        86.1773   32-B3g
 268   0.0000       3.166957        86.1773   32-B2g
 269   0.0000       3.167092        86.1809   33-B3g
 270   0.0000       3.167092        86.1809   33-B2g
 271   0.0000       3.167092        86.1810   33-B1g
 272   0.0000       3.174785        86.3903   29-Au
 273   0.0000       3.174785        86.3903   30-Au
 274   0.0000       3.213109        87.4331   36-B2u
 275   0.0000       3.213109        87.4331   36-B3u
 276   0.0000       3.213109        87.4331   36-B1u
 277   0.0000       3.273386        89.0734   37-B1u
 278   0.0000       3.273386        89.0734   37-B2u
 279   0.0000       3.273386        89.0734   37-B3u
 280   0.0000       3.289123        89.5016   38-B1u
 281   0.0000       3.289123        89.5016   38-B3u
 282   0.0000       3.289123        89.5016   38-B2u
 283   0.0000       3.308249        90.0220   34-B1g
 284   0.0000       3.308249        90.0220   34-B3g
 285   0.0000       3.308249        90.0220   34-B2g
 286   0.0000       3.311644        90.1144   41-Ag
 287   0.0000       3.344505        91.0086   35-B2g
 288   0.0000       3.344505        91.0086   35-B3g
 289   0.0000       3.344506        91.0086   35-B1g
 290   0.0000       3.366206        91.5991   31-Au
 291   0.0000       3.561145        96.9037   32-Au
 292   0.0000       3.566759        97.0564   39-B2u
 293   0.0000       3.566759        97.0564   39-B3u
 294   0.0000       3.566759        97.0564   39-B1u
 295   0.0000       3.605132        98.1006   36-B2g
 296   0.0000       3.605132        98.1006   36-B3g
 297   0.0000       3.605132        98.1006   36-B1g
 298   0.0000       3.661106        99.6238   37-B3g
 299   0.0000       3.661106        99.6238   37-B2g
 300   0.0000       3.661106        99.6238   37-B1g
 301   0.0000       3.701360       100.7191   40-B1u
 302   0.0000       3.701360       100.7191   40-B3u
 303   0.0000       3.701360       100.7191   40-B2u
 304   0.0000       3.714768       101.0840   33-Au
 305   0.0000       3.726000       101.3896   34-Au
 306   0.0000       3.726000       101.3896   35-Au
 307   0.0000       3.771191       102.6193   38-B3g
 308   0.0000       3.771191       102.6193   38-B2g
 309   0.0000       3.771192       102.6193   38-B1g
 310   0.0000       3.797216       103.3275   42-Ag
 311   0.0000       3.797216       103.3275   43-Ag
 312   0.0000       3.945892       107.3732   36-Au
 313   0.0000       3.945892       107.3732   37-Au
 314   0.0000       4.001059       108.8744   39-B3g
 315   0.0000       4.001059       108.8744   39-B2g
 316   0.0000       4.001060       108.8744   39-B1g
 317   0.0000       4.017374       109.3183   41-B1u
 318   0.0000       4.017374       109.3183   41-B2u
 319   0.0000       4.017374       109.3183   41-B3u
 320   0.0000       4.052093       110.2630   40-B3g
 321   0.0000       4.052093       110.2630   40-B2g
 322   0.0000       4.052094       110.2631   40-B1g
 323   0.0000       4.088397       111.2509   44-Ag
 324   0.0000       4.119896       112.1081   42-B2u
 325   0.0000       4.119896       112.1081   42-B3u
 326   0.0000       4.119896       112.1081   42-B1u
 327   0.0000       4.176141       113.6386   43-B2u
 328   0.0000       4.176141       113.6386   43-B3u
 329   0.0000       4.176141       113.6386   43-B1u
 330   0.0000       4.212009       114.6146   38-Au
 331   0.0000       4.212009       114.6146   39-Au
 332   0.0000       4.219160       114.8092   41-B1g
 333   0.0000       4.219160       114.8092   41-B2g
 334   0.0000       4.219160       114.8092   41-B3g
 335   0.0000       4.322563       117.6229   40-Au
 336   0.0000       4.382691       119.2591   44-B1u
 337   0.0000       4.382691       119.2591   44-B2u
 338   0.0000       4.382691       119.2591   44-B3u
 339   0.0000       4.393041       119.5407   42-B3g
 340   0.0000       4.393041       119.5407   42-B2g
 341   0.0000       4.393041       119.5407   42-B1g
 342   0.0000       4.505185       122.5923   43-B1g
 343   0.0000       4.505186       122.5923   43-B3g
 344   0.0000       4.505186       122.5923   43-B2g
 345   0.0000       4.669530       127.0644   45-Ag
 346   0.0000       4.669530       127.0644   46-Ag
 347   0.0000       4.782358       130.1346   41-Au
 348   0.0000       4.782358       130.1346   42-Au
 349   0.0000       4.860470       132.2601   44-B2g
 350   0.0000       4.860470       132.2601   44-B3g
 351   0.0000       4.860470       132.2601   44-B1g
 352   0.0000       4.899956       133.3346   47-Ag
 353   0.0000       5.020787       136.6226   43-Au
 354   0.0000       5.058596       137.6514   48-Ag
 355   0.0000       5.058596       137.6514   49-Ag
 356   0.0000       5.096187       138.6743   45-B2u
 357   0.0000       5.096187       138.6743   45-B3u
 358   0.0000       5.096187       138.6743   45-B1u
 359   0.0000       5.249669       142.8508   50-Ag
 360   0.0000       5.262622       143.2032   46-B1u
 361   0.0000       5.262622       143.2032   46-B2u
 362   0.0000       5.262622       143.2032   46-B3u
 363   0.0000       5.474529       148.9695   47-B1u
 364   0.0000       5.474530       148.9695   47-B3u
 365   0.0000       5.474530       148.9695   47-B2u
 366   0.0000       5.629015       153.1733   48-B2u
 367   0.0000       5.629015       153.1733   48-B3u
 368   0.0000       5.629015       153.1733   48-B1u
 369   0.0000       5.666887       154.2038   45-B1g
 370   0.0000       5.666887       154.2038   45-B3g
 371   0.0000       5.666887       154.2038   45-B2g
 372   0.0000       5.693666       154.9325   46-B1g
 373   0.0000       5.693666       154.9325   46-B2g
 374   0.0000       5.693666       154.9325   46-B3g
 375   0.0000       5.716987       155.5671   51-Ag
 376   0.0000       5.716987       155.5671   52-Ag
 377   0.0000       5.807453       158.0288   44-Au
 378   0.0000       5.820628       158.3874   49-B2u
 379   0.0000       5.820628       158.3874   49-B3u
 380   0.0000       5.820628       158.3874   49-B1u
 381   0.0000       5.831521       158.6838   50-B2u
 382   0.0000       5.831521       158.6838   50-B3u
 383   0.0000       5.831521       158.6838   50-B1u
 384   0.0000       5.870522       159.7450   47-B3g
 385   0.0000       5.870522       159.7450   47-B2g
 386   0.0000       5.870522       159.7450   47-B1g
 387   0.0000       5.883118       160.0878   53-Ag
 388   0.0000       5.969057       162.4263   48-B2g
 389   0.0000       5.969057       162.4263   48-B3g
 390   0.0000       5.969058       162.4263   48-B1g
 391   0.0000       6.031053       164.1133   51-B1u
 392   0.0000       6.031053       164.1133   51-B2u
 393   0.0000       6.031053       164.1133   51-B3u
 394   0.0000       6.215631       169.1359   52-B2u
 395   0.0000       6.215631       169.1359   52-B3u
 396   0.0000       6.215631       169.1359   52-B1u
 397   0.0000       6.249691       170.0627   53-B1u
 398   0.0000       6.249691       170.0627   53-B2u
 399   0.0000       6.249691       170.0627   53-B3u
 400   0.0000       6.250945       170.0969   54-Ag
 401   0.0000       6.270588       170.6314   55-Ag
 402   0.0000       6.270588       170.6314   56-Ag
 403   0.0000       6.289973       171.1589   54-B1u
 404   0.0000       6.289974       171.1589   54-B3u
 405   0.0000       6.289974       171.1589   54-B2u
 406   0.0000       6.301590       171.4750   45-Au
 407   0.0000       6.329591       172.2369   57-Ag
 408   0.0000       6.381559       173.6510   46-Au
 409   0.0000       6.388319       173.8350   49-B1g
 410   0.0000       6.388319       173.8350   49-B3g
 411   0.0000       6.388319       173.8350   49-B2g
 412   0.0000       6.394433       174.0014   47-Au
 413   0.0000       6.394433       174.0014   48-Au
 414   0.0000       6.396630       174.0611   58-Ag
 415   0.0000       6.396630       174.0611   59-Ag
 416   0.0000       6.417833       174.6381   55-B1u
 417   0.0000       6.417833       174.6381   55-B2u
 418   0.0000       6.417833       174.6381   55-B3u
 419   0.0000       6.424872       174.8297   56-B1u
 420   0.0000       6.424872       174.8297   56-B2u
 421   0.0000       6.424872       174.8297   56-B3u
 422   0.0000       6.451083       175.5429   50-B1g
 423   0.0000       6.451083       175.5429   50-B3g
 424   0.0000       6.451083       175.5429   50-B2g
 425   0.0000       6.453514       175.6090   51-B1g
 426   0.0000       6.453514       175.6090   51-B2g
 427   0.0000       6.453514       175.6090   51-B3g
 428   0.0000       6.479069       176.3044   60-Ag
 429   0.0000       6.514139       177.2587   49-Au
 430   0.0000       6.514139       177.2587   50-Au
 431   0.0000       6.522422       177.4841   52-B1g
 432   0.0000       6.522422       177.4841   52-B2g
 433   0.0000       6.522422       177.4841   52-B3g
 434   0.0000       6.607194       179.7909   57-B3u
 435   0.0000       6.607194       179.7909   57-B2u
 436   0.0000       6.607194       179.7909   57-B1u
 437   0.0000       6.660174       181.2326   53-B2g
 438   0.0000       6.660174       181.2326   53-B3g
 439   0.0000       6.660175       181.2326   53-B1g
 440   0.0000       6.684664       181.8989   58-B2u
 441   0.0000       6.684664       181.8989   58-B3u
 442   0.0000       6.684664       181.8989   58-B1u
 443   0.0000       6.723457       182.9546   51-Au
 444   0.0000       6.726871       183.0475   59-B3u
 445   0.0000       6.726871       183.0475   59-B2u
 446   0.0000       6.726871       183.0475   59-B1u
 447   0.0000       6.750876       183.7007   54-B3g
 448   0.0000       6.750876       183.7007   54-B2g
 449   0.0000       6.750876       183.7007   54-B1g
 450   0.0000       6.781603       184.5368   61-Ag
 451   0.0000       6.781603       184.5368   62-Ag
 452   0.0000       6.782971       184.5740   55-B3g
 453   0.0000       6.782971       184.5740   55-B2g
 454   0.0000       6.782971       184.5740   55-B1g
 455   0.0000       6.890117       187.4896   56-B1g
 456   0.0000       6.890117       187.4896   56-B3g
 457   0.0000       6.890117       187.4896   56-B2g
 458   0.0000       6.891368       187.5236   63-Ag
 459   0.0000       6.892206       187.5465   64-Ag
 460   0.0000       6.892206       187.5465   65-Ag
 461   0.0000       6.945231       188.9894   60-B2u
 462   0.0000       6.945231       188.9894   60-B3u
 463   0.0000       6.945231       188.9894   60-B1u
 464   0.0000       6.954701       189.2470   57-B3g
 465   0.0000       6.954701       189.2470   57-B2g
 466   0.0000       6.954701       189.2470   57-B1g
 467   0.0000       7.008270       190.7047   61-B3u
 468   0.0000       7.008270       190.7047   61-B2u
 469   0.0000       7.008270       190.7047   61-B1u
 470   0.0000       7.009546       190.7394   62-B1u
 471   0.0000       7.009546       190.7394   62-B2u
 472   0.0000       7.009546       190.7394   62-B3u
 473   0.0000       7.066793       192.2972   58-B3g
 474   0.0000       7.066793       192.2972   58-B2g
 475   0.0000       7.066793       192.2972   58-B1g
 476   0.0000       7.080407       192.6677   52-Au
 477   0.0000       7.097746       193.1395   59-B2g
 478   0.0000       7.097746       193.1395   59-B3g
 479   0.0000       7.097747       193.1395   59-B1g
 480   0.0000       7.110486       193.4862   53-Au
 481   0.0000       7.110486       193.4862   54-Au
 482   0.0000       7.143926       194.3961   55-Au
 483   0.0000       7.191454       195.6894   66-Ag
 484   0.0000       7.205977       196.0846   56-Au
 485   0.0000       7.205977       196.0846   57-Au
 486   0.0000       7.231399       196.7764   63-B3u
 487   0.0000       7.231399       196.7764   63-B2u
 488   0.0000       7.231399       196.7764   63-B1u
 489   0.0000       7.239373       196.9934   60-B1g
 490   0.0000       7.239373       196.9934   60-B3g
 491   0.0000       7.239373       196.9934   60-B2g
 492   0.0000       7.316524       199.0928   67-Ag
 493   0.0000       7.366349       200.4485   64-B3u
 494   0.0000       7.366349       200.4485   64-B2u
 495   0.0000       7.366349       200.4485   64-B1u
 496   0.0000       7.367087       200.4686   61-B1g
 497   0.0000       7.367087       200.4686   61-B2g
 498   0.0000       7.367087       200.4686   61-B3g
 499   0.0000       7.385727       200.9759   62-B1g
 500   0.0000       7.385727       200.9759   62-B3g
 501   0.0000       7.385727       200.9759   62-B2g
 502   0.0000       7.424253       202.0242   58-Au
 503   0.0000       7.518031       204.5760   65-B3u
 504   0.0000       7.518031       204.5760   65-B2u
 505   0.0000       7.518031       204.5760   65-B1u
 506   0.0000       7.561220       205.7513   63-B1g
 507   0.0000       7.561220       205.7513   63-B3g
 508   0.0000       7.561220       205.7513   63-B2g
 509   0.0000       7.582842       206.3396   59-Au
 510   0.0000       7.582842       206.3396   60-Au
 511   0.0000       7.584222       206.3772   68-Ag
 512   0.0000       7.584222       206.3772   69-Ag
 513   0.0000       7.757458       211.0912   64-B3g
 514   0.0000       7.757458       211.0912   64-B2g
 515   0.0000       7.757458       211.0912   64-B1g
 516   0.0000       7.786730       211.8877   70-Ag
 517   0.0000       7.790017       211.9772   61-Au
 518   0.0000       7.845513       213.4873   66-B2u
 519   0.0000       7.845513       213.4873   66-B3u
 520   0.0000       7.845513       213.4873   66-B1u
 521   0.0000       7.877364       214.3540   67-B1u
 522   0.0000       7.877364       214.3540   67-B2u
 523   0.0000       7.877364       214.3540   67-B3u
 524   0.0000       7.986600       217.3264   68-B3u
 525   0.0000       7.986600       217.3264   68-B2u
 526   0.0000       7.986600       217.3264   68-B1u
 527   0.0000       8.032542       218.5766   65-B2g
 528   0.0000       8.032542       218.5766   65-B3g
 529   0.0000       8.032542       218.5766   65-B1g
 530   0.0000       8.037158       218.7022   62-Au
 531   0.0000       8.037158       218.7022   63-Au
 532   0.0000       8.046294       218.9508   71-Ag
 533   0.0000       8.077165       219.7908   69-B1u
 534   0.0000       8.077165       219.7908   69-B2u
 535   0.0000       8.077165       219.7908   69-B3u
 536   0.0000       8.144610       221.6261   70-B2u
 537   0.0000       8.144610       221.6261   70-B3u
 538   0.0000       8.144610       221.6261   70-B1u
 539   0.0000       8.200163       223.1378   66-B2g
 540   0.0000       8.200163       223.1378   66-B3g
 541   0.0000       8.200163       223.1378   66-B1g
 542   0.0000       8.236220       224.1189   72-Ag
 543   0.0000       8.236220       224.1189   73-Ag
 544   0.0000       8.262620       224.8373   67-B1g
 545   0.0000       8.262620       224.8373   67-B2g
 546   0.0000       8.262620       224.8373   67-B3g
 547   0.0000       8.282940       225.3903   71-B1u
 548   0.0000       8.282940       225.3903   71-B3u
 549   0.0000       8.282940       225.3903   71-B2u
 550   0.0000       8.308778       226.0933   68-B3g
 551   0.0000       8.308778       226.0933   68-B2g
 552   0.0000       8.308778       226.0933   68-B1g
 553   0.0000       8.349535       227.2024   72-B2u
 554   0.0000       8.349535       227.2024   72-B3u
 555   0.0000       8.349535       227.2024   72-B1u
 556   0.0000       8.412997       228.9293   73-B3u
 557   0.0000       8.412997       228.9293   73-B2u
 558   0.0000       8.412997       228.9293   73-B1u
 559   0.0000       8.423817       229.2237   74-Ag
 560   0.0000       8.423817       229.2237   75-Ag
 561   0.0000       8.437697       229.6014   69-B3g
 562   0.0000       8.437697       229.6014   69-B2g
 563   0.0000       8.437697       229.6014   69-B1g
 564   0.0000       8.459113       230.1842   64-Au
 565   0.0000       8.459113       230.1842   65-Au
 566   0.0000       8.481391       230.7904   70-B1g
 567   0.0000       8.481391       230.7904   70-B2g
 568   0.0000       8.481391       230.7904   70-B3g
 569   0.0000       8.498912       231.2672   66-Au
 570   0.0000       8.570704       233.2207   67-Au
 571   0.0000       8.624460       234.6835   74-B3u
 572   0.0000       8.624460       234.6835   74-B2u
 573   0.0000       8.624460       234.6835   74-B1u
 574   0.0000       8.625811       234.7203   71-B3g
 575   0.0000       8.625811       234.7203   71-B2g
 576   0.0000       8.625811       234.7203   71-B1g
 577   0.0000       8.699880       236.7358   68-Au
 578   0.0000       8.699880       236.7358   69-Au
 579   0.0000       8.767566       238.5776   72-B1g
 580   0.0000       8.767567       238.5776   72-B2g
 581   0.0000       8.767567       238.5776   72-B3g
 582   0.0000       8.850421       240.8322   75-B2u
 583   0.0000       8.850421       240.8322   75-B3u
 584   0.0000       8.850421       240.8322   75-B1u
 585   0.0000       8.850930       240.8460   73-B2g
 586   0.0000       8.850930       240.8460   73-B3g
 587   0.0000       8.850930       240.8460   73-B1g
 588   0.0000       8.921702       242.7719   70-Au
 589   0.0000       8.961934       243.8666   76-Ag
 590   0.0000       8.961934       243.8666   77-Ag
 591   0.0000       8.989995       244.6302   78-Ag
 592   0.0000       9.015614       245.3273   74-B1g
 593   0.0000       9.015614       245.3273   74-B2g
 594   0.0000       9.015614       245.3273   74-B3g
 595   0.0000       9.049096       246.2384   71-Au
 596   0.0000       9.049096       246.2384   72-Au
 597   0.0000       9.074719       246.9357   75-B2g
 598   0.0000       9.074719       246.9357   75-B3g
 599   0.0000       9.074719       246.9357   75-B1g
 600   0.0000       9.082203       247.1393   76-B3u
 601   0.0000       9.082203       247.1393   76-B2u
 602   0.0000       9.082203       247.1393   76-B1u
 603   0.0000       9.096568       247.5302   79-Ag
 604   0.0000       9.096568       247.5302   80-Ag
 605   0.0000       9.160138       249.2600   77-B1u
 606   0.0000       9.160138       249.2600   77-B2u
 607   0.0000       9.160138       249.2600   77-B3u
 608   0.0000       9.262626       252.0489   73-Au
 609   0.0000       9.262626       252.0489   74-Au
 610   0.0000       9.296651       252.9747   76-B1g
 611   0.0000       9.296651       252.9747   76-B2g
 612   0.0000       9.296651       252.9747   76-B3g
 613   0.0000       9.365448       254.8468   78-B2u
 614   0.0000       9.365448       254.8468   78-B3u
 615   0.0000       9.365448       254.8468   78-B1u
 616   0.0000       9.468506       257.6511   77-B1g
 617   0.0000       9.468506       257.6511   77-B2g
 618   0.0000       9.468506       257.6511   77-B3g
 619   0.0000       9.503574       258.6054   79-B1u
 620   0.0000       9.503574       258.6054   79-B2u
 621   0.0000       9.503574       258.6054   79-B3u
 622   0.0000       9.702217       264.0107   75-Au
 623   0.0000       9.742011       265.0936   76-Au
 624   0.0000       9.742011       265.0936   77-Au
 625   0.0000       9.744904       265.1723   80-B1u
 626   0.0000       9.744904       265.1723   80-B2u
 627   0.0000       9.744904       265.1723   80-B3u
 628   0.0000       9.781265       266.1617   78-B1g
 629   0.0000       9.781265       266.1617   78-B2g
 630   0.0000       9.781265       266.1617   78-B3g
 631   0.0000       9.899436       269.3774   79-B3g
 632   0.0000       9.899436       269.3774   79-B2g
 633   0.0000       9.899436       269.3774   79-B1g
 634   0.0000      10.210737       277.8483   78-Au
 635   0.0000      10.210738       277.8483   79-Au
 636   0.0000      10.218208       278.0516   81-Ag
 637   0.0000      10.218208       278.0516   82-Ag
 638   0.0000      10.239667       278.6355   80-B1g
 639   0.0000      10.239667       278.6355   80-B3g
 640   0.0000      10.239667       278.6355   80-B2g
 641   0.0000      10.390762       282.7470   81-B2u
 642   0.0000      10.390762       282.7470   81-B3u
 643   0.0000      10.390762       282.7470   81-B1u
 644   0.0000      10.400565       283.0138   83-Ag
 645   0.0000      10.455944       284.5207   80-Au
 646   0.0000      10.498576       285.6808   82-B1u
 647   0.0000      10.498576       285.6808   82-B2u
 648   0.0000      10.498576       285.6808   82-B3u
 649   0.0000      10.685979       290.7803   81-B1g
 650   0.0000      10.685979       290.7803   81-B3g
 651   0.0000      10.685979       290.7803   81-B2g
 652   0.0000      10.825225       294.5694   83-B1u
 653   0.0000      10.825225       294.5694   83-B2u
 654   0.0000      10.825225       294.5694   83-B3u
 655   0.0000      10.930649       297.4381   82-B3g
 656   0.0000      10.930649       297.4381   82-B2g
 657   0.0000      10.930649       297.4381   82-B1g
 658   0.0000      10.993394       299.1455   83-B2g
 659   0.0000      10.993394       299.1455   83-B3g
 660   0.0000      10.993394       299.1455   83-B1g
 661   0.0000      11.074158       301.3432   81-Au
 662   0.0000      11.573834       314.9400   82-Au
 663   0.0000      11.573834       314.9400   83-Au
 664   0.0000      12.448256       338.7343   84-Ag
 665   0.0000      12.731832       346.4508   84-B1u
 666   0.0000      12.731832       346.4508   84-B2u
 667   0.0000      12.731832       346.4508   84-B3u
 668   0.0000      12.980653       353.2215   84-B1g
 669   0.0000      12.980653       353.2215   84-B3g
 670   0.0000      12.980653       353.2215   84-B2g
 671   0.0000      14.071680       382.9099   84-Au
 672   0.0000      25.020362       680.8387   85-Ag
 673   0.0000      25.359002       690.0535   85-B2u
 674   0.0000      25.359002       690.0535   85-B3u
 675   0.0000      25.359002       690.0535   85-B1u
 676   0.0000      26.551384       722.4999   85-B1g
 677   0.0000      26.551384       722.4999   85-B2g
 678   0.0000      26.551384       722.4999   85-B3g
 679   0.0000      29.453893       801.4812   85-Au

                    ********************************
                    * MULLIKEN POPULATION ANALYSIS *
                    ********************************

-----------------------
MULLIKEN ATOMIC CHARGES
-----------------------
   0 H :    0.200280
   1 C :   -0.200280
   2 H :    0.200280
   3 C :   -0.200280
   4 H :    0.200280
   5 C :   -0.200280
   6 H :    0.200280
   7 C :   -0.200280
   8 H :    0.200280
   9 C :   -0.200280
  10 H :    0.200280
  11 C :   -0.200280
  12 H :    0.200280
  13 C :   -0.200280
  14 H :    0.200280
  15 C :   -0.200280
[...]
      g-2     :     0.000155
      g+3     :     0.000170
      g-3     :     0.000170
      g+4     :     0.000246
      g-4     :     0.000276


                     *******************************
                     * LOEWDIN POPULATION ANALYSIS *
                     *******************************

----------------------
LOEWDIN ATOMIC CHARGES
----------------------
   0 H :   -0.121645
   1 C :    0.121645
   2 H :   -0.121645
   3 C :    0.121645
   4 H :   -0.121645
   5 C :    0.121645
   6 H :   -0.121645
   7 C :    0.121645
   8 H :   -0.121645
   9 C :    0.121645
  10 H :   -0.121645
  11 C :    0.121645
  12 H :   -0.121645
  13 C :    0.121645
  14 H :   -0.121645
  15 C :    0.121645

-------------------------------
LOEWDIN REDUCED ORBITAL CHARGES
-------------------------------
  0 H s       :     0.824028  s :     0.824028
      pz      :     0.072793  p :     0.218380
      px      :     0.072793
      py      :     0.072793
      dz2     :     0.018331  d :     0.069601
      dxz     :     0.010980
      dyz     :     0.010980
      dx2y2   :     0.018331
      dxy     :     0.010980
      f0      :     0.000986  f :     0.009636
      f+1     :     0.001417
      f-1     :     0.001417
      f+2     :     0.001675
      f-2     :     0.001653
      f+3     :     0.001244
      f-3     :     0.001244
  1 C s       :     2.563580  s :     2.563580
      pz      :     0.823363  p :     2.470088
      px      :     0.823363
      py      :     0.823363
      dz2     :     0.118172  d :     0.652773
      dxz     :     0.138810
      dyz     :     0.138810
      dx2y2   :     0.118172
      dxy     :     0.138810
      f0      :     0.030572  f :     0.178887
      f+1     :     0.028143
      f-1     :     0.028143
      f+2     :     0.026686
      f-2     :     0.007114
      f+3     :     0.029115
      f-3     :     0.029115
      g0      :     0.001494  g :     0.013027
      g+1     :     0.002227
      g-1     :     0.002227
      g+2     :     0.000975
      g-2     :     0.000613
      g+3     :     0.000844
      g-3     :     0.000844
      g+4     :     0.001346
      g-4     :     0.002458
  2 H s       :     0.824028  s :     0.824028
      pz      :     0.072793  p :     0.218380
      px      :     0.072793
      py      :     0.072793
      dz2     :     0.018331  d :     0.069601
      dxz     :     0.010980
      dyz     :     0.010980
      dx2y2   :     0.018331
      dxy     :     0.010980
      f0      :     0.000986  f :     0.009636
      f+1     :     0.001417
      f-1     :     0.001417
      f+2     :     0.001675
      f-2     :     0.001653
      f+3     :     0.001244
      f-3     :     0.001244
  3 C s       :     2.563580  s :     2.563580
      pz      :     0.823363  p :     2.470088
      px      :     0.823363
      py      :     0.823363
      dz2     :     0.118172  d :     0.652773
      dxz     :     0.138810
      dyz     :     0.138810
      dx2y2   :     0.118172
      dxy     :     0.138810
      f0      :     0.030572  f :     0.178887
      f+1     :     0.028143
      f-1     :     0.028143
      f+2     :     0.026686
      f-2     :     0.007114
      f+3     :     0.029115
      f-3     :     0.029115
      g0      :     0.001494  g :     0.013027
      g+1     :     0.002227
      g-1     :     0.002227
      g+2     :     0.000975
      g-2     :     0.000613
      g+3     :     0.000844
      g-3     :     0.000844
      g+4     :     0.001346
      g-4     :     0.002458
  4 H s       :     0.824028  s :     0.824028
      pz      :     0.072793  p :     0.218380
      px      :     0.072793
      py      :     0.072793
      dz2     :     0.018331  d :     0.069601
      dxz     :     0.010980
      dyz     :     0.010980
      dx2y2   :     0.018331
      dxy     :     0.010980
      f0      :     0.000986  f :     0.009636
      f+1     :     0.001417
      f-1     :     0.001417
      f+2     :     0.001675
      f-2     :     0.001653
      f+3     :     0.001244
      f-3     :     0.001244
  5 C s       :     2.563580  s :     2.563580
      pz      :     0.823363  p :     2.470088
      px      :     0.823363
      py      :     0.823363
      dz2     :     0.118172  d :     0.652773
      dxz     :     0.138810
      dyz     :     0.138810
      dx2y2   :     0.118172
      dxy     :     0.138810
      f0      :     0.030572  f :     0.178887
      f+1     :     0.028143
      f-1     :     0.028143
      f+2     :     0.026686
      f-2     :     0.007114
      f+3     :     0.029115
      f-3     :     0.029115
      g0      :     0.001494  g :     0.013027
      g+1     :     0.002227
      g-1     :     0.002227
      g+2     :     0.000975
      g-2     :     0.000613
      g+3     :     0.000844
      g-3     :     0.000844
      g+4     :     0.001346
      g-4     :     0.002458
  6 H s       :     0.824028  s :     0.824028
      pz      :     0.072793  p :     0.218380
      px      :     0.072793
      py      :     0.072793
      dz2     :     0.018331  d :     0.069601
      dxz     :     0.010980
      dyz     :     0.010980
      dx2y2   :     0.018331
      dxy     :     0.010980
      f0      :     0.000986  f :     0.009636
      f+1     :     0.001417
      f-1     :     0.001417
      f+2     :     0.001675
      f-2     :     0.001653
      f+3     :     0.001244
      f-3     :     0.001244
  7 C s       :     2.563580  s :     2.563580
      pz      :     0.823363  p :     2.470088
      px      :     0.823363
      py      :     0.823363
      dz2     :     0.118172  d :     0.652773
      dxz     :     0.138810
      dyz     :     0.138810
      dx2y2   :     0.118172
      dxy     :     0.138810
      f0      :     0.030572  f :     0.178887
      f+1     :     0.028143
      f-1     :     0.028143
      f+2     :     0.026686
      f-2     :     0.007114
      f+3     :     0.029115
      f-3     :     0.029115
      g0      :     0.001494  g :     0.013027
      g+1     :     0.002227
      g-1     :     0.002227
      g+2     :     0.000975
      g-2     :     0.000613
      g+3     :     0.000844
      g-3     :     0.000844
      g+4     :     0.001346
      g-4     :     0.002458
  8 H s       :     0.824028  s :     0.824028
      pz      :     0.072793  p :     0.218380
      px      :     0.072793
      py      :     0.072793
      dz2     :     0.018331  d :     0.069601
      dxz     :     0.010980
      dyz     :     0.010980
      dx2y2   :     0.018331
      dxy     :     0.010980
      f0      :     0.000986  f :     0.009636
      f+1     :     0.001417
      f-1     :     0.001417
      f+2     :     0.001675
      f-2     :     0.001653
      f+3     :     0.001244
      f-3     :     0.001244
  9 C s       :     2.563580  s :     2.563580
      pz      :     0.823363  p :     2.470088
      px      :     0.823363
      py      :     0.823363
      dz2     :     0.118172  d :     0.652773
      dxz     :     0.138810
      dyz     :     0.138810
      dx2y2   :     0.118172
      dxy     :     0.138810
      f0      :     0.030572  f :     0.178887
      f+1     :     0.028143
      f-1     :     0.028143
      f+2     :     0.026686
      f-2     :     0.007114
      f+3     :     0.029115
      f-3     :     0.029115
      g0      :     0.001494  g :     0.013027
      g+1     :     0.002227
      g-1     :     0.002227
      g+2     :     0.000975
      g-2     :     0.000613
      g+3     :     0.000844
      g-3     :     0.000844
      g+4     :     0.001346
      g-4     :     0.002458
 10 H s       :     0.824028  s :     0.824028
      pz      :     0.072793  p :     0.218380
      px      :     0.072793
      py      :     0.072793
      dz2     :     0.018331  d :     0.069601
      dxz     :     0.010980
      dyz     :     0.010980
      dx2y2   :     0.018331
      dxy     :     0.010980
      f0      :     0.000986  f :     0.009636
      f+1     :     0.001417
      f-1     :     0.001417
      f+2     :     0.001675
      f-2     :     0.001653
      f+3     :     0.001244
      f-3     :     0.001244
 11 C s       :     2.563580  s :     2.563580
      pz      :     0.823363  p :     2.470088
      px      :     0.823363
      py      :     0.823363
      dz2     :     0.118172  d :     0.652773
      dxz     :     0.138810
      dyz     :     0.138810
      dx2y2   :     0.118172
      dxy     :     0.138810
      f0      :     0.030572  f :     0.178887
      f+1     :     0.028143
      f-1     :     0.028143
      f+2     :     0.026686
      f-2     :     0.007114
      f+3     :     0.029115
      f-3     :     0.029115
      g0      :     0.001494  g :     0.013027
      g+1     :     0.002227
      g-1     :     0.002227
      g+2     :     0.000975
      g-2     :     0.000613
      g+3     :     0.000844
      g-3     :     0.000844
      g+4     :     0.001346
      g-4     :     0.002458
 12 H s       :     0.824028  s :     0.824028
      pz      :     0.072793  p :     0.218380
      px      :     0.072793
      py      :     0.072793
      dz2     :     0.018331  d :     0.069601
      dxz     :     0.010980
      dyz     :     0.010980
      dx2y2   :     0.018331
      dxy     :     0.010980
      f0      :     0.000986  f :     0.009636
      f+1     :     0.001417
      f-1     :     0.001417
      f+2     :     0.001675
      f-2     :     0.001653
      f+3     :     0.001244
      f-3     :     0.001244
 13 C s       :     2.563580  s :     2.563580
      pz      :     0.823363  p :     2.470088
      px      :     0.823363
      py      :     0.823363
      dz2     :     0.118172  d :     0.652773
      dxz     :     0.138810
      dyz     :     0.138810
      dx2y2   :     0.118172
      dxy     :     0.138810
      f0      :     0.030572  f :     0.178887
      f+1     :     0.028143
      f-1     :     0.028143
      f+2     :     0.026686
      f-2     :     0.007114
      f+3     :     0.029115
      f-3     :     0.029115
      g0      :     0.001494  g :     0.013027
      g+1     :     0.002227
      g-1     :     0.002227
      g+2     :     0.000975
      g-2     :     0.000613
      g+3     :     0.000844
      g-3     :     0.000844
      g+4     :     0.001346
      g-4     :     0.002458
 14 H s       :     0.824028  s :     0.824028
      pz      :     0.072793  p :     0.218380
      px      :     0.072793
      py      :     0.072793
      dz2     :     0.018331  d :     0.069601
      dxz     :     0.010980
      dyz     :     0.010980
      dx2y2   :     0.018331
      dxy     :     0.010980
      f0      :     0.000986  f :     0.009636
      f+1     :     0.001417
      f-1     :     0.001417
      f+2     :     0.001675
      f-2     :     0.001653
      f+3     :     0.001244
      f-3     :     0.001244
 15 C s       :     2.563580  s :     2.563580
      pz      :     0.823363  p :     2.470088
      px      :     0.823363
      py      :     0.823363
      dz2     :     0.118172  d :     0.652773
      dxz     :     0.138810
      dyz     :     0.138810
      dx2y2   :     0.118172
      dxy     :     0.138810
      f0      :     0.030572  f :     0.178887
      f+1     :     0.028143
      f-1     :     0.028143
      f+2     :     0.026686
      f-2     :     0.007114
      f+3     :     0.029115
      f-3     :     0.029115
      g0      :     0.001494  g :     0.013027
      g+1     :     0.002227
      g-1     :     0.002227
      g+2     :     0.000975
      g-2     :     0.000613
      g+3     :     0.000844
      g-3     :     0.000844
      g+4     :     0.001346
      g-4     :     0.002458


                      *****************************
                      * MAYER POPULATION ANALYSIS *
                      *****************************

  NA   - Mulliken gross atomic population
  ZA   - Total nuclear charge
  QA   - Mulliken gross atomic charge
  VA   - Mayer's total valence
  BVA  - Mayer's bonded valence
  FA   - Mayer's free valence

  ATOM       NA         ZA         QA         VA         BVA        FA
  0 H      0.7924     1.0000     0.2076     0.9754     0.9179     0.0574
  1 C      6.2076     6.0000    -0.2076     3.8374     3.4792     0.3582
  2 H      0.7924     1.0000     0.2076     0.9754     0.9179     0.0574
  3 C      6.2076     6.0000    -0.2076     3.8374     3.4792     0.3582
  4 H      0.7924     1.0000     0.2076     0.9754     0.9179     0.0574
  5 C      6.2076     6.0000    -0.2076     3.8374     3.4792     0.3582
  6 H      0.7924     1.0000     0.2076     0.9754     0.9179     0.0574
  7 C      6.2076     6.0000    -0.2076     3.8374     3.4792     0.3582
  8 H      0.7924     1.0000     0.2076     0.9754     0.9179     0.0574
  9 C      6.2076     6.0000    -0.2076     3.8374     3.4792     0.3582
 10 H      0.7924     1.0000     0.2076     0.9754     0.9179     0.0574
 11 C      6.2076     6.0000    -0.2076     3.8374     3.4792     0.3582
 12 H      0.7924     1.0000     0.2076     0.9754     0.9179     0.0574
 13 C      6.2076     6.0000    -0.2076     3.8374     3.4792     0.3582
 14 H      0.7924     1.0000     0.2076     0.9754     0.9179     0.0574
 15 C      6.2076     6.0000    -0.2076     3.8374     3.4792     0.3582

  Mayer bond orders larger than 0.1
B(  0-H ,  1-C ) :   0.9146 B(  1-C ,  3-C ) :   0.8666 B(  1-C ,  5-C ) :   0.8666 
B(  1-C ,  7-C ) :   0.8666 B(  2-H ,  3-C ) :   0.9146 B(  3-C ,  9-C ) :   0.8666 
B(  3-C , 11-C ) :   0.8666 B(  4-H ,  5-C ) :   0.9146 B(  5-C ,  9-C ) :   0.8666 
B(  5-C , 13-C ) :   0.8666 B(  6-H ,  7-C ) :   0.9146 B(  7-C , 11-C ) :   0.8666 
B(  7-C , 13-C ) :   0.8666 B(  8-H ,  9-C ) :   0.9146 B(  9-C , 15-C ) :   0.8666 
B( 10-H , 11-C ) :   0.9146 B( 11-C , 15-C ) :   0.8666 B( 12-H , 13-C ) :   0.9146 
B( 13-C , 15-C ) :   0.8666 B( 14-H , 15-C ) :   0.9146 


-------
TIMINGS
-------

Total time                : 2410.895 sec
Integral trafo            :    5.007 sec (  0.2%)
FC preparation            :    1.673 sec (  0.1%)
I/O of integrals          :    0.033 sec (  0.0%)
K(i,j) Operators          :    3.696 sec (  0.2%)
T(i,j) pair energies      :    0.418 sec (  0.0%)
V-calculation             :    0.102 sec (  0.0%)
V**(-1/2)                 :    0.176 sec (  0.0%)
Gamma(ia|P)               :    3.615 sec (  0.1%)
Gamma-Trafo               :    0.952 sec (  0.0%)
D(virtual)                :    0.533 sec (  0.0%)
D(internal)               :    2.768 sec (  0.1%)
W(virtual)                :    1.064 sec (  0.0%)
W(internal)               :    3.465 sec (  0.1%)
L(virtual)                :   16.419 sec (  0.7%)
L(internal)               :    0.079 sec (  0.0%)
G(D)                      :  208.042 sec (  8.6%)
G(Z)                      :  200.418 sec (  8.3%)
Z-Vector Solution         : 1018.758 sec ( 42.3%)
3-Index Derivative        :   39.815 sec (  1.7%)
2-Index Derivative        :    0.215 sec (  0.0%)
Separable Gradient        :  897.221 sec ( 37.2%)


---------------------------------------
MP2 TOTAL ENERGY:     -308.875717318 Eh
---------------------------------------

-----------------------------------
NORM OF THE MP2 GRADIENT:  0.000053
-----------------------------------

-------------------------   --------------------
FINAL SINGLE POINT ENERGY      -308.875717317587
-------------------------   --------------------

                                *** OPTIMIZATION RUN DONE ***

                            ***************************************
                            *     ORCA property calculations      *
                            ***************************************

                                    ---------------------
                                    Active property flags
                                    ---------------------
   (+) Dipole Moment


------------------------------------------------------------------------------
                       ORCA ELECTRIC PROPERTIES CALCULATION
------------------------------------------------------------------------------

Dipole Moment Calculation                       ... on
Quadrupole Moment Calculation                   ... off
Polarizability Calculation                      ... off
GBWName                                         ... /home/vladimir/Quantum_Chemistry/ORCA/C8H8/cubane/optimize/MP2/cc-pVQZ-RI/./cubane.gbw
Electron density file                           ... /home/vladimir/Quantum_Chemistry/ORCA/C8H8/cubane/optimize/MP2/cc-pVQZ-RI/./cubane.scfp.tmp

-------------
DIPOLE MOMENT
-------------
                                X             Y             Z
Electronic contribution:     -0.00000       0.00000       0.00000
Nuclear contribution   :      0.00000      -0.00000      -0.00000
                        -----------------------------------------
Total Dipole Moment    :     -0.00000      -0.00000       0.00000
                        -----------------------------------------
Magnitude (a.u.)       :      0.00000
Magnitude (Debye)      :      0.00000


                         *** MP2 UNRELAXED DENSITY ***

------------------------------------------------------------------------------
                       ORCA ELECTRIC PROPERTIES CALCULATION
------------------------------------------------------------------------------

Dipole Moment Calculation                       ... on
Quadrupole Moment Calculation                   ... off
Polarizability Calculation                      ... off
GBWName                                         ... /home/vladimir/Quantum_Chemistry/ORCA/C8H8/cubane/optimize/MP2/cc-pVQZ-RI/./cubane.gbw
Electron density file                           ... /home/vladimir/Quantum_Chemistry/ORCA/C8H8/cubane/optimize/MP2/cc-pVQZ-RI/./cubane.pmp2ur

-------------
DIPOLE MOMENT
-------------
                                X             Y             Z
Electronic contribution:     -0.00000       0.00000       0.00000
Nuclear contribution   :      0.00000      -0.00000      -0.00000
                        -----------------------------------------
Total Dipole Moment    :     -0.00000       0.00000       0.00000
                        -----------------------------------------
Magnitude (a.u.)       :      0.00000
Magnitude (Debye)      :      0.00000


                           *** MP2 RELAXED DENSITY ***

------------------------------------------------------------------------------
                       ORCA ELECTRIC PROPERTIES CALCULATION
------------------------------------------------------------------------------

Dipole Moment Calculation                       ... on
Quadrupole Moment Calculation                   ... off
Polarizability Calculation                      ... off
GBWName                                         ... /home/vladimir/Quantum_Chemistry/ORCA/C8H8/cubane/optimize/MP2/cc-pVQZ-RI/./cubane.gbw
Electron density file                           ... /home/vladimir/Quantum_Chemistry/ORCA/C8H8/cubane/optimize/MP2/cc-pVQZ-RI/./cubane.pmp2re

-------------
DIPOLE MOMENT
-------------
                                X             Y             Z
Electronic contribution:     -0.00000       0.00000       0.00000
Nuclear contribution   :      0.00000      -0.00000      -0.00000
                        -----------------------------------------
Total Dipole Moment    :     -0.00000       0.00000       0.00000
                        -----------------------------------------
Magnitude (a.u.)       :      0.00000
Magnitude (Debye)      :      0.00000


Timings for individual modules:

Sum of individual times         ...    10024.931 sec (= 167.082 min)
GTO integral calculation        ...        3.823 sec (=   0.064 min)   0.0 %
SCF iterations                  ...     2712.960 sec (=  45.216 min)  27.1 %
MP2 module                      ...     7308.001 sec (= 121.800 min)  72.9 %
Geometry relaxation             ...        0.147 sec (=   0.002 min)   0.0 %
                             ****ORCA TERMINATED NORMALLY****
TOTAL RUN TIME: 0 days 2 hours 47 minutes 5 seconds 856 msec
