
                                 *****************
                                 * O   R   C   A *
                                 *****************

           --- An Ab Initio, DFT and Semiempirical electronic structure package ---

                  #######################################################
                  #                        -***-                        #
                  #  Department of molecular theory and spectroscopy    #
                  #              Directorship: Frank Neese              #
                  # Max Planck Institute for Chemical Energy Conversion #
                  #                  D-45470 Muelheim/Ruhr              #
                  #                       Germany                       #
                  #                                                     #
                  #                  All rights reserved                #
                  #                        -***-                        #
                  #######################################################


                         Program Version 4.0.0 -  RELEASE  -


 With contributions from (in alphabetic order):
   Daniel Aravena         : Magnetic Properties
   Michael Atanasov       : Ab Initio Ligand Field Theory
   Ute Becker             : Parallelization
   Martin Brehm           : Molecular dynamics
   Dmytro Bykov           : SCF Hessian
   Vijay G. Chilkuri      : MRCI spin determinant printing
   Dipayan Datta          : RHF DLPNO-CCSD density
   Achintya Kumar Dutta   : EOM-CC, STEOM-CC
   Dmitry Ganyushin       : Spin-Orbit,Spin-Spin,Magnetic field MRCI
   Yang Guo               : DLPNO-NEVPT2, CIM, IAO-localization
   Andreas Hansen         : Spin unrestricted coupled pair/coupled cluster methods
   Lee Huntington         : MR-EOM, pCC
   Robert Izsak           : Overlap fitted RIJCOSX, COSX-SCS-MP3, EOM
   Christian Kollmar      : KDIIS, OOCD, Brueckner-CCSD(T), CCSD density
   Simone Kossmann        : Meta GGA functionals, TD-DFT gradient, OOMP2, MP2 Hessian
   Martin Krupicka        : AUTO-CI
   Dagmar Lenk            : GEPOL surface
   Dimitrios Liakos       : Extrapolation schemes; parallel MDCI
   Dimitrios Manganas     : ROCIS; embedding schemes
   Dimitrios Pantazis     : SARC Basis sets
   Taras Petrenko         : DFT Hessian,TD-DFT gradient, ASA, ECA, R-Raman, ABS, FL, XAS/XES, NRVS
   Peter Pinski           : DLPNO-MP2
   Christoph Reimann      : Effective Core Potentials
   Marius Retegan         : Local ZFS, SOC
   Christoph Riplinger    : Optimizer, TS searches, QM/MM, DLPNO-CCSD(T), (RO)-DLPNO pert. Triples
   Tobias Risthaus        : Range-separated hybrids, TD-DFT gradient, RPA, STAB
   Michael Roemelt        : Restricted open shell CIS
   Masaaki Saitow         : Open-shell DLPNO
   Barbara Sandhoefer     : DKH picture change effects
   Kantharuban Sivalingam : CASSCF convergence, NEVPT2, FIC-MRCI
   Georgi Stoychev        : AutoAux
   Boris Wezisla          : Elementary symmetry handling
   Frank Wennmohs         : Technical directorship


 We gratefully acknowledge several colleagues who have allowed us to
 interface, adapt or use parts of their codes:
   Stefan Grimme, W. Hujo, H. Kruse,             : VdW corrections, initial TS optimization,
                  C. Bannwarth                     DFT functionals, gCP, sTDA/sTD-DF
   Ed Valeev                                     : LibInt (2-el integral package), F12 methods
   Garnet Chan, S. Sharma, J. Yang, R. Olivares  : DMRG
   Ulf Ekstrom                                   : XCFun DFT Library
   Mihaly Kallay                                 : mrcc  (arbitrary order and MRCC methods)
   Jiri Pittner, Ondrej Demel                    : Mk-CCSD
   Frank Weinhold                                : gennbo (NPA and NBO analysis)
   Christopher J. Cramer and Donald G. Truhlar   : smd solvation model


 Your calculation uses the libint2 library for the computation of 2-el integrals
 For citations please refer to: http://libint.valeyev.net

 This ORCA versions uses:
   CBLAS   interface :  Fast vector & matrix operations
   LAPACKE interface :  Fast linear algebra routines
   SCALAPACK package :  Parallel linear algebra routines


Your calculation utilizes the basis: def2-QZVP
   F. Weigend and R. Ahlrichs, Phys. Chem. Chem. Phys. 7, 3297 (2005).

================================================================================
                                        WARNINGS
                       Please study these warnings very carefully!
================================================================================


WARNING: Geometry optimizations can change the point-group symmetry!

Warning: TCutStore was < 0. Adjusted to Thresh (uncritical)

WARNING: Geometry Optimization
  ===> : Switching off AutoStart
         For restart on a previous wavefunction, please use MOREAD

INFO   : the flag for use of LIBINT has been found!

================================================================================
                                       INPUT FILE
================================================================================
NAME = /home/vladimir/git/private/ORCA/C8H8/cubane/optimize/DFT/B3LYP/QZVP/./cubane.inp
|  1> # ================================================================
|  2> # Orca input file for cubane B3LYP/def2-QZVP geometry optimization
|  3> # ================================================================
|  4> ! RHF B3LYP def2-QZVP TightSCF TightOPT UseSym
|  5> ! PAL4
|  6> 
|  7> * xyz 0 1
|  8>   H      -1.423     -1.423     -1.423
|  9>   C      -0.788     -0.788     -0.788
| 10>   H      -1.423     -1.423      1.423
| 11>   C      -0.788     -0.788      0.788
| 12>   H      -1.423      1.423     -1.423
| 13>   C      -0.788      0.788     -0.788
| 14>   H       1.423     -1.423     -1.423
| 15>   C       0.788     -0.788     -0.788
| 16>   H      -1.423      1.423      1.423
| 17>   C      -0.788      0.788      0.788
| 18>   H       1.423     -1.423      1.423
| 19>   C       0.788     -0.788      0.788
| 20>   H       1.423      1.423     -1.423
| 21>   C       0.788      0.788     -0.788
| 22>   H       1.423      1.423      1.423
| 23>   C       0.788      0.788      0.788
| 24> *
| 25> 
| 26>                          ****END OF INPUT****
================================================================================

------------------------------------------------------------------------------
                            SYMMETRY HANDLING SETUP
------------------------------------------------------------------------------

------------------
SYMMETRY DETECTION
------------------
Preparing Data                    ... done
Detection Threshold:    SymThresh ... 1.0000e-04

Point Group will now be determined:
Moving molecule to center of mass ... done

POINT GROUP                       ... Oh

The coordinates will now be cleaned:
Moving to standard coord frame    ... done
(Changed one of the main axes to z and another to x)
Structure cleanup requested       ... yes
Selected point group              ... Oh
Cleaning Tolerance      SymThresh ... 1.0000e-04

Some missing point group data is constructed:
Constructing symmetry operations  ... done
Creating atom transfer table      ... done
Creating asymmetric unit          ... done

Cleaning coordinates              ... done

-----------------------------------------------
SYMMETRY-PERFECTED CARTESIAN COORDINATES (A.U.)
-----------------------------------------------
   0 H    -2.68908029   2.68908029   2.68908029 
   1 C    -1.48910419   1.48910419   1.48910419 
   2 H    -2.68908029  -2.68908029   2.68908029 
   3 C    -1.48910419  -1.48910419   1.48910419 
   4 H     2.68908029   2.68908029   2.68908029 
   5 C     1.48910419   1.48910419   1.48910419 
   6 H    -2.68908029   2.68908029  -2.68908029 
   7 C    -1.48910419   1.48910419  -1.48910419 
   8 H     2.68908029  -2.68908029   2.68908029 
   9 C     1.48910419  -1.48910419   1.48910419 
  10 H    -2.68908029  -2.68908029  -2.68908029 
  11 C    -1.48910419  -1.48910419  -1.48910419 
  12 H     2.68908029   2.68908029  -2.68908029 
  13 C     1.48910419   1.48910419  -1.48910419 
  14 H     2.68908029  -2.68908029  -2.68908029 
  15 C     1.48910419  -1.48910419  -1.48910419 

------------------
SYMMETRY REDUCTION
------------------
ORCA supports only abelian point groups.
It is now checked, if the determined point group is supported:
Point Group ( Oh    ) is          ... NOT supported
Reducing to abelian subgroup      ... D2h

(Re)building abelian point group:
Creating Character Table          ... done
Making direct product table       ... done
Constructing symmetry operations  ... done
Creating atom transfer table      ... done
Creating asymmetric unit          ... done

----------------------
ASYMMETRIC UNIT IN D2h
----------------------
  #  AT     MASS              COORDS (A.U.)             BAS
   0 H    1.0080  -2.68908029   2.68908029   2.68908029   0
   1 C   12.0110  -1.48910419   1.48910419   1.48910419   0

----------------------
SYMMETRY ADAPTED BASIS
----------------------
The coefficients for the symmetry adapted linear combinations (SALCS)
of basis functions will now be computed:
Number of basis functions         ...   696
Preparing memory                  ... done
Constructing Gamma(red)           ... done
Reducing Gamma(red)               ... done
Constructing SALCs                ... done
Checking SALC integrity           ... nothing suspicious
Normalizing SALCs                 ... done

Storing the symmetry object:
Symmetry file                     ... /home/vladimir/git/private/ORCA/C8H8/cubane/optimize/DFT/B3LYP/QZVP/./cubane.sym.tmp
Writing symmetry information      ... done

                       *****************************
                       * Geometry Optimization Run *
                       *****************************

Geometry optimization settings:
Update method            Update   .... BFGS
Choice of coordinates    CoordSys .... Redundant Internals
Initial Hessian          InHess   .... Almoef's Model

Convergence Tolerances:
Energy Change            TolE     ....  1.0000e-06 Eh
Max. Gradient            TolMAXG  ....  1.0000e-04 Eh/bohr
RMS Gradient             TolRMSG  ....  3.0000e-05 Eh/bohr
Max. Displacement        TolMAXD  ....  1.0000e-03 bohr
RMS Displacement         TolRMSD  ....  6.0000e-04 bohr

------------------------------------------------------------------------------
                        ORCA OPTIMIZATION COORDINATE SETUP
------------------------------------------------------------------------------

The optimization will be done in new redundant internal coordinates
Making redundant internal coordinates   ...  (new redundants) done
Evaluating the initial hessian          ...  (Almloef) done
Evaluating the coordinates              ...  done
Calculating the B-matrix                .... done
Calculating the G-matrix                .... done
Diagonalizing the G-matrix              .... done
The first mode is                       ....  134
The number of degrees of freedom        ....   42

    -----------------------------------------------------------------
                    Redundant Internal Coordinates


    -----------------------------------------------------------------
         Definition                    Initial Value    Approx d2E/dq
    -----------------------------------------------------------------
      1. B(C   1,H   0)                  1.0999         0.347300   
      2. B(C   3,H   2)                  1.0999         0.347300   
      3. B(C   3,C   1)                  1.5760         0.315491   
      4. B(C   5,H   4)                  1.0999         0.347300   
      5. B(C   5,C   1)                  1.5760         0.315491   
      6. B(C   7,H   6)                  1.0999         0.347300   
      7. B(C   7,C   1)                  1.5760         0.315491   
      8. B(C   9,H   8)                  1.0999         0.347300   
      9. B(C   9,C   5)                  1.5760         0.315491   
     10. B(C   9,C   3)                  1.5760         0.315491   
     11. B(C  11,H  10)                  1.0999         0.347300   
     12. B(C  11,C   7)                  1.5760         0.315491   
     13. B(C  11,C   3)                  1.5760         0.315491   
     14. B(C  13,C   7)                  1.5760         0.315491   
     15. B(C  13,C   5)                  1.5760         0.315491   
     16. B(C  13,H  12)                  1.0999         0.347300   
     17. B(C  15,H  14)                  1.0999         0.347300   
     18. B(C  15,C  13)                  1.5760         0.315491   
     19. B(C  15,C  11)                  1.5760         0.315491   
     20. B(C  15,C   9)                  1.5760         0.315491   
     21. A(H   0,C   1,C   3)          125.2644         0.313640   
     22. A(H   0,C   1,C   7)          125.2644         0.313640   
     23. A(C   3,C   1,C   5)           90.0000         0.343147   
     24. A(H   0,C   1,C   5)          125.2644         0.313640   
     25. A(C   5,C   1,C   7)           90.0000         0.343147   
     26. A(C   3,C   1,C   7)           90.0000         0.343147   
     27. A(C   1,C   3,C  11)           90.0000         0.343147   
     28. A(C   1,C   3,C   9)           90.0000         0.343147   
     29. A(C   1,C   3,H   2)          125.2644         0.313640   
     30. A(H   2,C   3,C  11)          125.2644         0.313640   
     31. A(C   9,C   3,C  11)           90.0000         0.343147   
     32. A(H   2,C   3,C   9)          125.2644         0.313640   
     33. A(H   4,C   5,C  13)          125.2644         0.313640   
     34. A(C   9,C   5,C  13)           90.0000         0.343147   
     35. A(H   4,C   5,C   9)          125.2644         0.313640   
     36. A(C   1,C   5,C  13)           90.0000         0.343147   
     37. A(C   1,C   5,C   9)           90.0000         0.343147   
     38. A(C   1,C   5,H   4)          125.2644         0.313640   
     39. A(C  11,C   7,C  13)           90.0000         0.343147   
     40. A(C   1,C   7,C  13)           90.0000         0.343147   
     41. A(H   6,C   7,C  11)          125.2644         0.313640   
     42. A(C   1,C   7,C  11)           90.0000         0.343147   
     43. A(C   1,C   7,H   6)          125.2644         0.313640   
     44. A(H   6,C   7,C  13)          125.2644         0.313640   
     45. A(C   3,C   9,H   8)          125.2644         0.313640   
     46. A(C   3,C   9,C   5)           90.0000         0.343147   
     47. A(H   8,C   9,C  15)          125.2644         0.313640   
     48. A(C   5,C   9,C  15)           90.0000         0.343147   
     49. A(C   3,C   9,C  15)           90.0000         0.343147   
     50. A(C   5,C   9,H   8)          125.2644         0.313640   
     51. A(C   7,C  11,H  10)          125.2644         0.313640   
     52. A(C   3,C  11,H  10)          125.2644         0.313640   
     53. A(C   3,C  11,C   7)           90.0000         0.343147   
     54. A(H  10,C  11,C  15)          125.2644         0.313640   
     55. A(C   7,C  11,C  15)           90.0000         0.343147   
     56. A(C   3,C  11,C  15)           90.0000         0.343147   
     57. A(C   5,C  13,C   7)           90.0000         0.343147   
     58. A(H  12,C  13,C  15)          125.2644         0.313640   
     59. A(C   7,C  13,C  15)           90.0000         0.343147   
     60. A(C   5,C  13,C  15)           90.0000         0.343147   
     61. A(C   7,C  13,H  12)          125.2644         0.313640   
     62. A(C   5,C  13,H  12)          125.2644         0.313640   
     63. A(C  13,C  15,H  14)          125.2644         0.313640   
     64. A(C  11,C  15,H  14)          125.2644         0.313640   
     65. A(C   9,C  15,H  14)          125.2644         0.313640   
     66. A(C  11,C  15,C  13)           90.0000         0.343147   
     67. A(C   9,C  15,C  13)           90.0000         0.343147   
     68. A(C   9,C  15,C  11)           90.0000         0.343147   
     69. D(C   9,C   3,C   1,C   5)      0.0000         0.008186   
     70. D(C  11,C   3,C   1,C   5)    -90.0000         0.008186   
     71. D(H   2,C   3,C   1,C   5)    135.0000         0.008186   
     72. D(H   2,C   3,C   1,C   7)   -135.0000         0.008186   
     73. D(C  11,C   3,C   1,C   7)      0.0000         0.008186   
     74. D(C   9,C   3,C   1,H   0)   -135.0000         0.008186   
     75. D(C   9,C   3,C   1,C   7)     90.0000         0.008186   
     76. D(H   2,C   3,C   1,H   0)      0.0000         0.008186   
     77. D(C  11,C   3,C   1,H   0)    135.0000         0.008186   
     78. D(H   4,C   5,C   1,C   3)   -135.0000         0.008186   
     79. D(H   4,C   5,C   1,C   7)    135.0000         0.008186   
     80. D(H   4,C   5,C   1,H   0)      0.0000         0.008186   
     81. D(C  13,C   5,C   1,C   3)     90.0000         0.008186   
     82. D(C   9,C   5,C   1,H   0)    135.0000         0.008186   
     83. D(C  13,C   5,C   1,C   7)      0.0000         0.008186   
     84. D(C   9,C   5,C   1,C   7)    -90.0000         0.008186   
     85. D(C  13,C   5,C   1,H   0)   -135.0000         0.008186   
     86. D(C   9,C   5,C   1,C   3)      0.0000         0.008186   
     87. D(C  11,C   7,C   1,C   5)     90.0000         0.008186   
     88. D(H   6,C   7,C   1,C   5)   -135.0000         0.008186   
     89. D(C  13,C   7,C   1,H   0)    135.0000         0.008186   
     90. D(C  11,C   7,C   1,C   3)      0.0000         0.008186   
     91. D(H   6,C   7,C   1,C   3)    135.0000         0.008186   
     92. D(C  13,C   7,C   1,C   3)    -90.0000         0.008186   
     93. D(H   6,C   7,C   1,H   0)      0.0000         0.008186   
     94. D(C  13,C   7,C   1,C   5)      0.0000         0.008186   
     95. D(C  11,C   7,C   1,H   0)   -135.0000         0.008186   
     96. D(C   5,C   9,C   3,C   1)      0.0000         0.008186   
     97. D(H   8,C   9,C   3,C   1)    135.0000         0.008186   
     98. D(C  15,C   9,C   5,C  13)      0.0000         0.008186   
     99. D(C  15,C   9,C   5,H   4)   -135.0000         0.008186   
    100. D(H   8,C   9,C   5,C  13)    135.0000         0.008186   
    101. D(H   8,C   9,C   5,H   4)      0.0000         0.008186   
    102. D(H   8,C   9,C   5,C   1)   -135.0000         0.008186   
    103. D(C   5,C   9,C   3,C  11)     90.0000         0.008186   
    104. D(C  15,C   9,C   3,H   2)    135.0000         0.008186   
    105. D(C   3,C   9,C   5,C   1)      0.0000         0.008186   
    106. D(C  15,C   9,C   3,C  11)      0.0000         0.008186   
    107. D(C   3,C   9,C   5,C  13)    -90.0000         0.008186   
    108. D(C  15,C   9,C   3,C   1)    -90.0000         0.008186   
    109. D(H   8,C   9,C   3,C  11)   -135.0000         0.008186   
    110. D(C  15,C   9,C   5,C   1)     90.0000         0.008186   
    111. D(H   8,C   9,C   3,H   2)      0.0000         0.008186   
    112. D(C   3,C   9,C   5,H   4)    135.0000         0.008186   
    113. D(C   5,C   9,C   3,H   2)   -135.0000         0.008186   
    114. D(C  15,C  11,C   7,H   6)    135.0000         0.008186   
    115. D(C  15,C  11,C   7,C   1)    -90.0000         0.008186   
    116. D(H  10,C  11,C   7,C  13)   -135.0000         0.008186   
    117. D(H  10,C  11,C   7,C   1)    135.0000         0.008186   
    118. D(C   3,C  11,C   7,C  13)     90.0000         0.008186   
    119. D(C   3,C  11,C   7,H   6)   -135.0000         0.008186   
    120. D(C   3,C  11,C   7,C   1)      0.0000         0.008186   
    121. D(C  15,C  11,C   3,C   9)      0.0000         0.008186   
    122. D(C  15,C  11,C   3,C   1)     90.0000         0.008186   
    123. D(H  10,C  11,C   3,C   1)   -135.0000         0.008186   
    124. D(C   7,C  11,C   3,C   9)    -90.0000         0.008186   
    125. D(C   7,C  11,C   3,H   2)    135.0000         0.008186   
    126. D(H  10,C  11,C   7,H   6)      0.0000         0.008186   
    127. D(C   7,C  11,C   3,C   1)      0.0000         0.008186   
    128. D(H  10,C  11,C   3,H   2)      0.0000         0.008186   
    129. D(H  10,C  11,C   3,C   9)    135.0000         0.008186   
    130. D(C  15,C  11,C   7,C  13)      0.0000         0.008186   
    131. D(C  15,C  11,C   3,H   2)   -135.0000         0.008186   
    132. D(C  15,C  13,C   7,C  11)      0.0000         0.008186   
    133. D(C  15,C  13,C   7,H   6)   -135.0000         0.008186   
    134. D(H  12,C  13,C   7,C  11)    135.0000         0.008186   
    135. D(H  12,C  13,C   7,H   6)      0.0000         0.008186   
    136. D(H  12,C  13,C   7,C   1)   -135.0000         0.008186   
    137. D(C   5,C  13,C   7,H   6)    135.0000         0.008186   
    138. D(C   5,C  13,C   7,C   1)      0.0000         0.008186   
    139. D(C  15,C  13,C   5,C   9)      0.0000         0.008186   
    140. D(C  15,C  13,C   5,H   4)    135.0000         0.008186   
    141. D(C  15,C  13,C   5,C   1)    -90.0000         0.008186   
    142. D(C   5,C  13,C   7,C  11)    -90.0000         0.008186   
    143. D(H  12,C  13,C   5,C   9)   -135.0000         0.008186   
    144. D(H  12,C  13,C   5,H   4)      0.0000         0.008186   
    145. D(H  12,C  13,C   5,C   1)    135.0000         0.008186   
    146. D(C  15,C  13,C   7,C   1)     90.0000         0.008186   
    147. D(C   7,C  13,C   5,C   9)     90.0000         0.008186   
    148. D(C   7,C  13,C   5,H   4)   -135.0000         0.008186   
    149. D(C   7,C  13,C   5,C   1)      0.0000         0.008186   
    150. D(H  14,C  15,C  13,H  12)      0.0000         0.008186   
    151. D(H  14,C  15,C  13,C   5)   -135.0000         0.008186   
    152. D(C  11,C  15,C  13,H  12)   -135.0000         0.008186   
    153. D(C  11,C  15,C  13,C   7)      0.0000         0.008186   
    154. D(C   9,C  15,C  13,H  12)    135.0000         0.008186   
    155. D(C   9,C  15,C  13,C   7)    -90.0000         0.008186   
    156. D(C   9,C  15,C  13,C   5)      0.0000         0.008186   
    157. D(H  14,C  15,C  11,H  10)      0.0000         0.008186   
    158. D(H  14,C  15,C  11,C   7)   -135.0000         0.008186   
    159. D(H  14,C  15,C  11,C   3)    135.0000         0.008186   
    160. D(C  13,C  15,C  11,H  10)    135.0000         0.008186   
    161. D(C  13,C  15,C  11,C   7)      0.0000         0.008186   
    162. D(C  13,C  15,C  11,C   3)    -90.0000         0.008186   
    163. D(C   9,C  15,C  11,H  10)   -135.0000         0.008186   
    164. D(C   9,C  15,C  11,C   7)     90.0000         0.008186   
    165. D(C   9,C  15,C  11,C   3)      0.0000         0.008186   
    166. D(H  14,C  15,C   9,H   8)      0.0000         0.008186   
    167. D(H  14,C  15,C   9,C   5)    135.0000         0.008186   
    168. D(H  14,C  15,C   9,C   3)   -135.0000         0.008186   
    169. D(C  13,C  15,C   9,H   8)   -135.0000         0.008186   
    170. D(C  11,C  15,C  13,C   5)     90.0000         0.008186   
    171. D(C  13,C  15,C   9,C   5)      0.0000         0.008186   
    172. D(C  13,C  15,C   9,C   3)     90.0000         0.008186   
    173. D(C  11,C  15,C   9,H   8)    135.0000         0.008186   
    174. D(H  14,C  15,C  13,C   7)    135.0000         0.008186   
    175. D(C  11,C  15,C   9,C   5)    -90.0000         0.008186   
    176. D(C  11,C  15,C   9,C   3)      0.0000         0.008186   
    -----------------------------------------------------------------

Number of atoms                         .... 16
Number of degrees of freedom            .... 176

         *************************************************************
         *                GEOMETRY OPTIMIZATION CYCLE   1            *
         *************************************************************
---------------------------------
CARTESIAN COORDINATES (ANGSTROEM)
---------------------------------
  H     -1.423000    1.423000    1.423000
  C     -0.788000    0.788000    0.788000
  H     -1.423000   -1.423000    1.423000
  C     -0.788000   -0.788000    0.788000
  H      1.423000    1.423000    1.423000
  C      0.788000    0.788000    0.788000
  H     -1.423000    1.423000   -1.423000
  C     -0.788000    0.788000   -0.788000
  H      1.423000   -1.423000    1.423000
  C      0.788000   -0.788000    0.788000
  H     -1.423000   -1.423000   -1.423000
  C     -0.788000   -0.788000   -0.788000
  H      1.423000    1.423000   -1.423000
  C      0.788000    0.788000   -0.788000
  H      1.423000   -1.423000   -1.423000
  C      0.788000   -0.788000   -0.788000

----------------------------
CARTESIAN COORDINATES (A.U.)
----------------------------
  NO LB      ZA    FRAG     MASS         X           Y           Z
   0 H     1.0000    0     1.008   -2.689080    2.689080    2.689080
   1 C     6.0000    0    12.011   -1.489104    1.489104    1.489104
   2 H     1.0000    0     1.008   -2.689080   -2.689080    2.689080
   3 C     6.0000    0    12.011   -1.489104   -1.489104    1.489104
   4 H     1.0000    0     1.008    2.689080    2.689080    2.689080
   5 C     6.0000    0    12.011    1.489104    1.489104    1.489104
   6 H     1.0000    0     1.008   -2.689080    2.689080   -2.689080
   7 C     6.0000    0    12.011   -1.489104    1.489104   -1.489104
   8 H     1.0000    0     1.008    2.689080   -2.689080    2.689080
   9 C     6.0000    0    12.011    1.489104   -1.489104    1.489104
  10 H     1.0000    0     1.008   -2.689080   -2.689080   -2.689080
  11 C     6.0000    0    12.011   -1.489104   -1.489104   -1.489104
  12 H     1.0000    0     1.008    2.689080    2.689080   -2.689080
  13 C     6.0000    0    12.011    1.489104    1.489104   -1.489104
  14 H     1.0000    0     1.008    2.689080   -2.689080   -2.689080
  15 C     6.0000    0    12.011    1.489104   -1.489104   -1.489104

--------------------------------
INTERNAL COORDINATES (ANGSTROEM)
--------------------------------
 H      0   0   0     0.000000000000     0.00000000     0.00000000
 C      1   0   0     1.099852262806     0.00000000     0.00000000
 H      2   1   0     2.386413836701   103.15923744     0.00000000
 C      3   2   1     1.099852262806    32.63045807   180.00000000
 H      2   1   3     2.386413836701   103.15923744   240.00000000
 C      5   2   1     1.099852262806    32.63045807   180.00000000
 H      2   1   3     2.386413836701   103.15923744   120.00000000
 C      7   2   1     1.099852262806    32.63045807   180.00000000
 H      4   3   2     2.386413836701   103.15923744   120.00000000
 C      9   4   3     1.099852262806    32.63045807   180.00000000
 H      4   3   2     2.386413836701   103.15923744   240.00000000
 C     11   4   3     1.099852262806    32.63045807   180.00000000
 H      6   5   2     2.386413836701   103.15923744   120.00000000
 C     13   6   5     1.099852262806    32.63045807   180.00000000
 H     10   9   4     2.386413836701   103.15923744   240.00000000
 C     15  10   9     1.099852262806    32.63045807   180.00000000

---------------------------
INTERNAL COORDINATES (A.U.)
---------------------------
 H      0   0   0     0.000000000000     0.00000000     0.00000000
 C      1   0   0     2.078419564477     0.00000000     0.00000000
 H      2   1   0     4.509668593566   103.15923744     0.00000000
 C      3   2   1     2.078419564477    32.63045807   180.00000000
 H      2   1   3     4.509668593566   103.15923744   240.00000000
 C      5   2   1     2.078419564477    32.63045807   180.00000000
 H      2   1   3     4.509668593566   103.15923744   120.00000000
 C      7   2   1     2.078419564477    32.63045807   180.00000000
 H      4   3   2     4.509668593566   103.15923744   120.00000000
 C      9   4   3     2.078419564477    32.63045807   180.00000000
 H      4   3   2     4.509668593566   103.15923744   240.00000000
 C     11   4   3     2.078419564477    32.63045807   180.00000000
 H      6   5   2     4.509668593566   103.15923744   120.00000000
 C     13   6   5     2.078419564477    32.63045807   180.00000000
 H     10   9   4     4.509668593566   103.15923744   240.00000000
 C     15  10   9     2.078419564477    32.63045807   180.00000000

---------------------
BASIS SET INFORMATION
---------------------
There are 2 groups of distinct atoms

 Group   1 Type H   : 7s3p2d1f contracted to 4s3p2d1f pattern {4111/111/11/1}
 Group   2 Type C   : 15s8p3d2f1g contracted to 7s4p3d2f1g pattern {8211111/5111/111/11/1}

Atom   0H    basis set group =>   1
Atom   1C    basis set group =>   2
Atom   2H    basis set group =>   1
Atom   3C    basis set group =>   2
Atom   4H    basis set group =>   1
Atom   5C    basis set group =>   2
Atom   6H    basis set group =>   1
Atom   7C    basis set group =>   2
Atom   8H    basis set group =>   1
Atom   9C    basis set group =>   2
Atom  10H    basis set group =>   1
Atom  11C    basis set group =>   2
Atom  12H    basis set group =>   1
Atom  13C    basis set group =>   2
Atom  14H    basis set group =>   1
Atom  15C    basis set group =>   2
-------------------------
ECP PARAMETER INFORMATION
-------------------------





           ************************************************************
           *        Program running with 4 parallel MPI-processes     *
           *              working on a common directory               *
           ************************************************************
------------------------------------------------------------------------------
                           ORCA GTO INTEGRAL CALCULATION
------------------------------------------------------------------------------

                         BASIS SET STATISTICS AND STARTUP INFO

 # of primitive gaussian shells          ...  336
 # of primitive gaussian functions       ...  880
 # of contracted shells                  ...  216
 # of contracted basis functions         ...  696
 Highest angular momentum                ...    4
 Maximum contraction depth               ...    8
 Integral package used                   ... LIBINT
 Integral threshhold            Thresh   ...  2.500e-11
 Primitive cut-off              TCut     ...  2.500e-12


------------------------------ INTEGRAL EVALUATION ----------------------------


 * One electron integrals 

   ECP integrals                          Pre-screening matrix                    ... done
 Shell pair data                         ... done (   0.005 sec)



           ************************************************************
           *        Program running with 4 parallel MPI-processes     *
           *              working on a common directory               *
           ************************************************************
-------------------------------------------------------------------------------
                                 ORCA SCF
-------------------------------------------------------------------------------

------------
SCF SETTINGS
------------
Hamiltonian:
 Density Functional     Method          .... DFT(GTOs)
 Exchange Functional    Exchange        .... B88
   X-Alpha parameter    XAlpha          ....  0.666667
   Becke's b parameter  XBeta           ....  0.004200
 Correlation Functional Correlation     .... LYP
 LDA part of GGA corr.  LDAOpt          .... VWN-5
 Gradients option       PostSCFGGA      .... off
 Hybrid DFT is turned on
   Fraction HF Exchange ScalHFX         ....  0.200000
   Scaling of DF-GGA-X  ScalDFX         ....  0.720000
   Scaling of DF-GGA-C  ScalDFC         ....  0.810000
   Scaling of DF-LDA-C  ScalLDAC        ....  1.000000
   Perturbative correction              ....  0.000000
   NL short-range parameter             ....  4.800000


General Settings:
 Integral files         IntName         .... /home/vladimir/git/private/ORCA/C8H8/cubane/optimize/DFT/B3LYP/QZVP/./cubane
 Hartree-Fock type      HFTyp           .... RHF
 Total Charge           Charge          ....    0
 Multiplicity           Mult            ....    1
 Number of Electrons    NEL             ....   56
 Basis Dimension        Dim             ....  696
 Nuclear Repulsion      ENuc            ....    365.3173763557 Eh

 Symmetry handling      UseSym         .... ON
 Point group                           .... D2h
 Used point group                      .... D2h
 Number of irreps                      .... 8
   Irrep   Ag has   87 symmetry adapted basis functions (ofs=   0)
   Irrep  B1g has   87 symmetry adapted basis functions (ofs=  87)
   Irrep  B2g has   87 symmetry adapted basis functions (ofs= 174)
   Irrep  B3g has   87 symmetry adapted basis functions (ofs= 261)
   Irrep   Au has   87 symmetry adapted basis functions (ofs= 348)
   Irrep  B1u has   87 symmetry adapted basis functions (ofs= 435)
   Irrep  B2u has   87 symmetry adapted basis functions (ofs= 522)
   Irrep  B3u has   87 symmetry adapted basis functions (ofs= 609)

Convergence Acceleration:
 DIIS                   CNVDIIS         .... on
   Start iteration      DIISMaxIt       ....    12
   Startup error        DIISStart       ....  0.200000
   # of expansion vecs  DIISMaxEq       ....     5
   Bias factor          DIISBfac        ....   1.050
   Max. coefficient     DIISMaxC        ....  10.000
 Newton-Raphson         CNVNR           .... off
 SOSCF                  CNVSOSCF        .... on
   Start iteration      SOSCFMaxIt      ....   150
   Startup grad/error   SOSCFStart      ....  0.003300
 Level Shifting         CNVShift        .... on
   Level shift para.    LevelShift      ....    0.2500
   Turn off err/grad.   ShiftErr        ....    0.0010
 Zerner damping         CNVZerner       .... off
 Static damping         CNVDamp         .... on
   Fraction old density DampFac         ....    0.7000
   Max. Damping (<1)    DampMax         ....    0.9800
   Min. Damping (>=0)   DampMin         ....    0.0000
   Turn off err/grad.   DampErr         ....    0.1000
 Fernandez-Rico         CNVRico         .... off

SCF Procedure:
 Maximum # iterations   MaxIter         ....   125
 SCF integral mode      SCFMode         .... Direct
   Integral package                     .... LIBINT
 Reset frequeny         DirectResetFreq ....    20
 Integral Threshold     Thresh          ....  2.500e-11 Eh
 Primitive CutOff       TCut            ....  2.500e-12 Eh

Convergence Tolerance:
 Convergence Check Mode ConvCheckMode   .... Total+1el-Energy
 Convergence forced     ConvForced      .... 0
 Energy Change          TolE            ....  1.000e-08 Eh
 1-El. energy change                    ....  1.000e-05 Eh
 Orbital Gradient       TolG            ....  1.000e-05
 Orbital Rotation angle TolX            ....  1.000e-05
 DIIS Error             TolErr          ....  5.000e-07


Diagonalization of the overlap matrix:
Smallest eigenvalue                        ... 3.366e-06
Time for diagonalization                   ...    0.324 sec
Threshold for overlap eigenvalues          ... 1.000e-08
Number of eigenvalues below threshold      ... 0
Time for construction of square roots      ...    0.043 sec
Producing symmetrization matrix            ... done (   0.024 sec)
Total time needed                          ...    0.394 sec

-------------------
DFT GRID GENERATION
-------------------

General Integration Accuracy     IntAcc      ...  4.340
Radial Grid Type                 RadialGrid  ... Gauss-Chebyshev
Angular Grid (max. acc.)         AngularGrid ... Lebedev-110
Angular grid pruning method      GridPruning ... 3 (G Style)
Weight generation scheme         WeightScheme... Becke
Basis function cutoff            BFCut       ...    1.0000e-11
Integration weight cutoff        WCut        ...    1.0000e-14
Grids for H and He will be reduced by one unit

# of grid points (after initial pruning)     ...  19600 (   0.0 sec)
# of grid points (after weights+screening)   ...  17600 (   0.0 sec)
nearest neighbour list constructed           ...    0.0 sec
Grid point re-assignment to atoms done       ...    0.0 sec
Grid point division into batches done        ...    0.0 sec
Reduced shell lists constructed in    0.1 sec

Total number of grid points                  ...    17600
Total number of batches                      ...      288
Average number of points per batch           ...       61
Average number of grid points per atom       ...     1100
Average number of shells per batch           ...   144.14 (66.73%)
Average number of basis functions per batch  ...   485.89 (69.81%)
Average number of large shells per batch     ...   112.58 (78.10%)
Average number of large basis fcns per batch ...   369.70 (76.09%)
Maximum spatial batch extension              ...  20.34, 17.47, 20.16 au
Average spatial batch extension              ...   0.91,  0.96,  0.88 au

Time for grid setup =    0.092 sec

------------------------------
INITIAL GUESS: MODEL POTENTIAL
------------------------------
Loading Hartree-Fock densities                     ... done
Calculating cut-offs                               ... done
Setting up the integral package                    ... done
Initializing the effective Hamiltonian             ... done
Starting the Coulomb interaction                   ... done (   0.2 sec)
Reading the grid                                   ... done
Mapping shells                                     ... done
Starting the XC term evaluation                    ... done (   0.5 sec)
  promolecular density results
     # of electrons  =     56.060690950
     EX              =    -43.510986306
     EC              =     -1.863242972
     EX+EC           =    -45.374229277
done (   0.0 sec)
Diagonalizing the Hamiltonian                      ... done (   0.0 sec)
Back transforming the eigenvectors                 ... done (   0.0 sec)
Now organizing SCF variables                       ... done
The symmetry of the initial guess is 1-Ag
Irrep occupations for operator 0
    Ag -    5
   B1g -    3
   B2g -    3
   B3g -    3
    Au -    2
   B1u -    4
   B2u -    4
   B3u -    4
                      ------------------
                      INITIAL GUESS DONE (   1.0 sec)
                      ------------------
--------------
SCF ITERATIONS
--------------
ITER       Energy         Delta-E        Max-DP      RMS-DP      [F,P]     Damp
               ***  Starting incremental Fock matrix formation  ***
  0   -309.1971554659   0.000000000000 0.06301593  0.00073614  0.0880288 0.7000
  1   -309.2636492306  -0.066493764668 0.00694693  0.00013699  0.0317614 0.7000
                               ***Turning on DIIS***
  2   -309.2997095826  -0.036060351990 0.02425643  0.00032716  0.0191556 0.0000
  3   -309.3795735421  -0.079863959486 0.00671657  0.00010345  0.0068462 0.0000
  4   -309.3801861347  -0.000612592585 0.00156698  0.00002956  0.0035504 0.0000
                      *** Initiating the SOSCF procedure ***
                           *** Shutting down DIIS ***
                      *** Re-Reading the Fockian *** 
                      *** Removing any level shift *** 
ITER      Energy       Delta-E        Grad      Rot      Max-DP    RMS-DP
  5   -309.38051317  -0.0003270366  0.000284  0.000284  0.000284  0.000006
               *** Restarting incremental Fock matrix formation ***
  6   -309.38052011  -0.0000069405  0.000038  0.000034  0.000056  0.000001
  7   -309.38052015  -0.0000000399  0.000016  0.000011  0.000010  0.000000
  8   -309.38052017  -0.0000000144  0.000003  0.000004  0.000005  0.000000
  9   -309.38052016   0.0000000069  0.000003  0.000002  0.000003  0.000000
                  ***Gradient check signals convergence***
              ***Rediagonalizing the Fockian in SOSCF/NRSCF***

               *****************************************************
               *                     SUCCESS                       *
               *           SCF CONVERGED AFTER  10 CYCLES          *
               *****************************************************

Setting up the final grid:

General Integration Accuracy     IntAcc      ...  4.670
Radial Grid Type                 RadialGrid  ... Gauss-Chebyshev
Angular Grid (max. acc.)         AngularGrid ... Lebedev-302
Angular grid pruning method      GridPruning ... 3 (G Style)
Weight generation scheme         WeightScheme... Becke
Basis function cutoff            BFCut       ...    1.0000e-11
Integration weight cutoff        WCut        ...    1.0000e-14
Grids for H and He will be reduced by one unit

# of grid points (after initial pruning)     ...  76848 (   0.0 sec)
# of grid points (after weights+screening)   ...  68424 (   0.0 sec)
nearest neighbour list constructed           ...    0.0 sec
Grid point re-assignment to atoms done       ...    0.0 sec
Grid point division into batches done        ...    0.2 sec
Reduced shell lists constructed in    0.4 sec

Total number of grid points                  ...    68424
Total number of batches                      ...     1072
Average number of points per batch           ...       63
Average number of grid points per atom       ...     4276
Average number of shells per batch           ...   131.04 (60.67%)
Average number of basis functions per batch  ...   437.71 (62.89%)
Average number of large shells per batch     ...   101.14 (77.18%)
Average number of large basis fcns per batch ...   328.87 (75.13%)
Maximum spatial batch extension              ...  21.93, 18.16, 21.93 au
Average spatial batch extension              ...   0.61,  0.61,  0.61 au

Final grid set up in    0.5 sec
Final integration                            ... done (   2.1 sec)
Change in XC energy                          ...     0.003238925
Integrated number of electrons               ...    56.000324457
Previous integrated no of electrons          ...    56.029625304

----------------
TOTAL SCF ENERGY
----------------

Total Energy       :         -309.37728124 Eh           -8418.58381 eV

Components:
Nuclear Repulsion  :          365.31737636 Eh            9940.79119 eV
Electronic Energy  :         -674.69465759 Eh          -18359.37501 eV
One Electron Energy:        -1140.87200101 Eh          -31044.70543 eV
Two Electron Energy:          466.17734342 Eh           12685.33042 eV

Virial components:
Potential Energy   :         -617.02876440 Eh          -16790.20628 eV
Kinetic Energy     :          307.65148316 Eh            8371.62246 eV
Virial Ratio       :            2.00560959


DFT components:
N(Alpha)           :       28.000162228463 electrons
N(Beta)            :       28.000162228463 electrons
N(Total)           :       56.000324456927 electrons
E(X)               :      -35.134585393693 Eh       
E(C)               :       -2.199830403823 Eh       
E(XC)              :      -37.334415797516 Eh       

---------------
SCF CONVERGENCE
---------------

  Last Energy change         ...   -8.9375e-10  Tolerance :   1.0000e-08
  Last MAX-Density change    ...    4.3923e-06  Tolerance :   1.0000e-07
  Last RMS-Density change    ...    8.8746e-08  Tolerance :   5.0000e-09
  Last Orbital Gradient      ...    2.5217e-07  Tolerance :   1.0000e-05
  Last Orbital Rotation      ...    2.3280e-07  Tolerance :   1.0000e-05

             **** THE GBW FILE WAS UPDATED (/home/vladimir/git/private/ORCA/C8H8/cubane/optimize/DFT/B3LYP/QZVP/./cubane.gbw) ****
             **** DENSITY FILE WAS UPDATED (/home/vladimir/git/private/ORCA/C8H8/cubane/optimize/DFT/B3LYP/QZVP/./cubane.scfp.tmp) ****
             **** ENERGY FILE WAS UPDATED (/home/vladimir/git/private/ORCA/C8H8/cubane/optimize/DFT/B3LYP/QZVP/./cubane.en.tmp) ****
----------------
ORBITAL ENERGIES
----------------

  NO   OCC          E(Eh)            E(eV)    Irrep 
   0   2.0000     -10.174545      -276.8634    1-Ag
   1   2.0000     -10.174376      -276.8588    1-B2u
   2   2.0000     -10.174376      -276.8588    1-B3u
   3   2.0000     -10.174376      -276.8588    1-B1u
   4   2.0000     -10.174204      -276.8542    1-B2g
   5   2.0000     -10.174204      -276.8542    1-B1g
   6   2.0000     -10.174204      -276.8542    1-B3g
   7   2.0000     -10.174030      -276.8494    1-Au
   8   2.0000      -0.936063       -25.4716    2-Ag
   9   2.0000      -0.719473       -19.5779    2-B2u
  10   2.0000      -0.719473       -19.5779    2-B3u
  11   2.0000      -0.719473       -19.5779    2-B1u
  12   2.0000      -0.555057       -15.1039    2-B2g
  13   2.0000      -0.555057       -15.1039    2-B1g
  14   2.0000      -0.555057       -15.1039    2-B3g
  15   2.0000      -0.527428       -14.3520    3-Ag
  16   2.0000      -0.460889       -12.5414    2-Au
  17   2.0000      -0.429177       -11.6785    4-Ag
  18   2.0000      -0.429177       -11.6785    5-Ag
  19   2.0000      -0.420990       -11.4557    3-B3u
  20   2.0000      -0.420990       -11.4557    3-B2u
  21   2.0000      -0.420990       -11.4557    3-B1u
  22   2.0000      -0.272815        -7.4237    4-B3u
  23   2.0000      -0.272815        -7.4237    4-B2u
  24   2.0000      -0.272815        -7.4237    4-B1u
  25   2.0000      -0.261365        -7.1121    3-B3g
  26   2.0000      -0.261365        -7.1121    3-B1g
  27   2.0000      -0.261365        -7.1121    3-B2g
  28   0.0000       0.024142         0.6569    6-Ag
  29   0.0000       0.026740         0.7276    5-B3u
  30   0.0000       0.026740         0.7276    5-B2u
  31   0.0000       0.026740         0.7276    5-B1u
  32   0.0000       0.072991         1.9862    4-B1g
  33   0.0000       0.072991         1.9862    4-B2g
  34   0.0000       0.072991         1.9862    4-B3g
  35   0.0000       0.081450         2.2164    6-B1u
  36   0.0000       0.081450         2.2164    6-B2u
  37   0.0000       0.081450         2.2164    6-B3u
  38   0.0000       0.099566         2.7093    3-Au
  39   0.0000       0.118930         3.2363    7-Ag
  40   0.0000       0.118930         3.2363    8-Ag
  41   0.0000       0.165393         4.5006    5-B1g
  42   0.0000       0.165393         4.5006    5-B2g
  43   0.0000       0.165393         4.5006    5-B3g
  44   0.0000       0.173248         4.7143    9-Ag
  45   0.0000       0.175421         4.7734    7-B1u
  46   0.0000       0.175421         4.7734    7-B3u
  47   0.0000       0.175421         4.7734    7-B2u
  48   0.0000       0.187015         5.0889    6-B3g
  49   0.0000       0.187015         5.0889    6-B2g
  50   0.0000       0.187016         5.0890    6-B1g
  51   0.0000       0.218838         5.9549    8-B1u
  52   0.0000       0.218838         5.9549    8-B2u
  53   0.0000       0.218838         5.9549    8-B3u
  54   0.0000       0.253424         6.8960   10-Ag
  55   0.0000       0.267543         7.2802    4-Au
  56   0.0000       0.267544         7.2802    5-Au
  57   0.0000       0.291659         7.9364    6-Au
  58   0.0000       0.309489         8.4216    9-B1u
  59   0.0000       0.309489         8.4216    9-B2u
  60   0.0000       0.309489         8.4216    9-B3u
  61   0.0000       0.317808         8.6480    7-B1g
  62   0.0000       0.317808         8.6480    7-B2g
  63   0.0000       0.317808         8.6480    7-B3g
  64   0.0000       0.320716         8.7271    8-B1g
  65   0.0000       0.320716         8.7271    8-B2g
  66   0.0000       0.320717         8.7271    8-B3g
  67   0.0000       0.337872         9.1940   10-B2u
  68   0.0000       0.337872         9.1940   10-B3u
  69   0.0000       0.337873         9.1940   10-B1u
  70   0.0000       0.364435         9.9168    9-B2g
  71   0.0000       0.364436         9.9168    9-B3g
  72   0.0000       0.364438         9.9169    9-B1g
  73   0.0000       0.370932        10.0936    7-Au
  74   0.0000       0.370933        10.0936    8-Au
  75   0.0000       0.427721        11.6389   11-Ag
  76   0.0000       0.427721        11.6389   12-Ag
  77   0.0000       0.459058        12.4916   10-B3g
  78   0.0000       0.459058        12.4916   10-B2g
  79   0.0000       0.459059        12.4916   10-B1g
  80   0.0000       0.479972        13.0607   11-B3u
  81   0.0000       0.479973        13.0607   11-B2u
  82   0.0000       0.479973        13.0607   11-B1u
  83   0.0000       0.482975        13.1424    9-Au
  84   0.0000       0.558349        15.1935   13-Ag
  85   0.0000       0.565296        15.3825   11-B2g
  86   0.0000       0.565297        15.3825   11-B3g
  87   0.0000       0.565300        15.3826   11-B1g
  88   0.0000       0.580800        15.8044   14-Ag
  89   0.0000       0.580800        15.8044   15-Ag
  90   0.0000       0.601852        16.3772   12-B1u
  91   0.0000       0.601852        16.3772   12-B3u
  92   0.0000       0.601852        16.3772   12-B2u
  93   0.0000       0.649135        17.6639   13-B1u
  94   0.0000       0.649135        17.6639   13-B2u
  95   0.0000       0.649135        17.6639   13-B3u
  96   0.0000       0.659776        17.9534   16-Ag
  97   0.0000       0.678357        18.4590   10-Au
  98   0.0000       0.719244        19.5716   12-B1g
  99   0.0000       0.719244        19.5716   12-B3g
 100   0.0000       0.719244        19.5716   12-B2g
 101   0.0000       0.731009        19.8918   11-Au
 102   0.0000       0.731015        19.8919   12-Au
 103   0.0000       0.759719        20.6730   14-B1u
 104   0.0000       0.759719        20.6730   14-B2u
 105   0.0000       0.759719        20.6730   14-B3u
 106   0.0000       0.772479        21.0202   15-B2u
 107   0.0000       0.772479        21.0202   15-B3u
 108   0.0000       0.772480        21.0202   15-B1u
 109   0.0000       0.821292        22.3485   13-B3g
 110   0.0000       0.821293        22.3485   13-B2g
 111   0.0000       0.821293        22.3485   13-B1g
 112   0.0000       0.843328        22.9481   13-Au
 113   0.0000       0.862024        23.4569   16-B1u
 114   0.0000       0.862025        23.4569   16-B3u
 115   0.0000       0.862025        23.4569   16-B2u
 116   0.0000       0.882660        24.0184   17-Ag
 117   0.0000       0.882660        24.0184   18-Ag
 118   0.0000       0.891379        24.2556   14-B2g
 119   0.0000       0.891379        24.2557   14-B3g
 120   0.0000       0.891380        24.2557   14-B1g
 121   0.0000       0.898799        24.4576   19-Ag
 122   0.0000       0.901684        24.5361   15-B2g
 123   0.0000       0.901684        24.5361   15-B3g
 124   0.0000       0.901684        24.5361   15-B1g
 125   0.0000       0.921774        25.0827   14-Au
 126   0.0000       0.992572        27.0092   17-B1u
 127   0.0000       0.992572        27.0092   17-B2u
 128   0.0000       0.992572        27.0093   17-B3u
 129   0.0000       0.992591        27.0098   16-B3g
 130   0.0000       0.992591        27.0098   16-B1g
 131   0.0000       0.992591        27.0098   16-B2g
 132   0.0000       1.030927        28.0529   18-B2u
 133   0.0000       1.030927        28.0529   18-B3u
 134   0.0000       1.030927        28.0529   18-B1u
 135   0.0000       1.076761        29.3001   20-Ag
 136   0.0000       1.076761        29.3001   21-Ag
 137   0.0000       1.100588        29.9485   19-B3u
 138   0.0000       1.100588        29.9485   19-B2u
 139   0.0000       1.100588        29.9485   19-B1u
 140   0.0000       1.133183        30.8355   17-B2g
 141   0.0000       1.133185        30.8355   17-B3g
 142   0.0000       1.133188        30.8356   17-B1g
 143   0.0000       1.149030        31.2667   22-Ag
 144   0.0000       1.155150        31.4332   15-Au
 145   0.0000       1.155150        31.4332   16-Au
 146   0.0000       1.178631        32.0722   20-B2u
 147   0.0000       1.178631        32.0722   20-B3u
 148   0.0000       1.178634        32.0723   20-B1u
 149   0.0000       1.247140        33.9364   18-B3g
 150   0.0000       1.247142        33.9365   18-B1g
 151   0.0000       1.247145        33.9365   18-B2g
 152   0.0000       1.273052        34.6415   23-Ag
 153   0.0000       1.358744        36.9733   19-B1g
 154   0.0000       1.358744        36.9733   19-B3g
 155   0.0000       1.358744        36.9733   19-B2g
 156   0.0000       1.404104        38.2076   17-Au
 157   0.0000       1.404121        38.2081   18-Au
 158   0.0000       1.406239        38.2657   20-B3g
 159   0.0000       1.406240        38.2657   20-B2g
 160   0.0000       1.406242        38.2658   20-B1g
 161   0.0000       1.441979        39.2382   21-B1g
 162   0.0000       1.441982        39.2383   21-B2g
 163   0.0000       1.441983        39.2383   21-B3g
 164   0.0000       1.444586        39.3092   21-B1u
 165   0.0000       1.444586        39.3092   21-B3u
 166   0.0000       1.444586        39.3092   21-B2u
 167   0.0000       1.508187        41.0399   19-Au
 168   0.0000       1.559598        42.4388   20-Au
 169   0.0000       1.572289        42.7841   24-Ag
 170   0.0000       1.572289        42.7841   25-Ag
 171   0.0000       1.596844        43.4523   22-B2u
 172   0.0000       1.596845        43.4524   22-B3u
 173   0.0000       1.596846        43.4524   22-B1u
 174   0.0000       1.601232        43.5717   21-Au
 175   0.0000       1.601246        43.5721   22-Au
 176   0.0000       1.617204        44.0064   23-B1u
 177   0.0000       1.617204        44.0064   23-B2u
 178   0.0000       1.617204        44.0064   23-B3u
 179   0.0000       1.720520        46.8177   24-B1u
 180   0.0000       1.720520        46.8177   24-B3u
 181   0.0000       1.720520        46.8177   24-B2u
 182   0.0000       1.747438        47.5502   26-Ag
 183   0.0000       1.747480        47.5513   27-Ag
 184   0.0000       1.747480        47.5513   28-Ag
 185   0.0000       1.753155        47.7058   22-B3g
 186   0.0000       1.753155        47.7058   22-B1g
 187   0.0000       1.753156        47.7058   22-B2g
 188   0.0000       1.792760        48.7835   29-Ag
 189   0.0000       1.795547        48.8593   25-B3u
 190   0.0000       1.795547        48.8593   25-B2u
 191   0.0000       1.795548        48.8594   25-B1u
 192   0.0000       1.857103        50.5344   23-B3g
 193   0.0000       1.857103        50.5344   23-B2g
 194   0.0000       1.857104        50.5344   23-B1g
 195   0.0000       1.861654        50.6582   26-B1u
 196   0.0000       1.861654        50.6582   26-B3u
 197   0.0000       1.861654        50.6582   26-B2u
 198   0.0000       1.951481        53.1025   23-Au
 199   0.0000       1.966475        53.5105   24-B3g
 200   0.0000       1.966477        53.5106   24-B1g
 201   0.0000       1.966481        53.5107   24-B2g
 202   0.0000       1.971101        53.6364   27-B1u
 203   0.0000       1.971101        53.6364   27-B2u
 204   0.0000       1.971101        53.6364   27-B3u
 205   0.0000       2.091492        56.9124   25-B1g
 206   0.0000       2.091493        56.9124   25-B2g
 207   0.0000       2.091493        56.9124   25-B3g
 208   0.0000       2.121259        57.7224   30-Ag
 209   0.0000       2.121259        57.7224   31-Ag
 210   0.0000       2.122140        57.7464   28-B2u
 211   0.0000       2.122140        57.7464   28-B1u
 212   0.0000       2.122140        57.7464   28-B3u
 213   0.0000       2.161535        58.8184   26-B2g
 214   0.0000       2.161537        58.8184   26-B3g
 215   0.0000       2.161538        58.8184   26-B1g
 216   0.0000       2.161648        58.8214   32-Ag
 217   0.0000       2.176777        59.2331   24-Au
 218   0.0000       2.176778        59.2331   25-Au
 219   0.0000       2.216353        60.3100   29-B1u
 220   0.0000       2.216353        60.3100   29-B2u
 221   0.0000       2.216353        60.3100   29-B3u
 222   0.0000       2.261583        61.5408   33-Ag
 223   0.0000       2.261584        61.5408   34-Ag
 224   0.0000       2.316927        63.0468   30-B2u
 225   0.0000       2.316927        63.0468   30-B3u
 226   0.0000       2.316927        63.0468   30-B1u
 227   0.0000       2.355072        64.0848   27-B1g
 228   0.0000       2.355073        64.0848   27-B2g
 229   0.0000       2.355073        64.0848   27-B3g
 230   0.0000       2.370627        64.5080   31-B1u
 231   0.0000       2.370627        64.5080   31-B3u
 232   0.0000       2.370627        64.5080   31-B2u
 233   0.0000       2.421610        65.8954   35-Ag
 234   0.0000       2.431013        66.1512   28-B3g
 235   0.0000       2.431015        66.1513   28-B1g
 236   0.0000       2.431026        66.1516   28-B2g
 237   0.0000       2.438432        66.3531   32-B1u
 238   0.0000       2.438432        66.3531   32-B3u
 239   0.0000       2.438432        66.3531   32-B2u
 240   0.0000       2.439858        66.3919   29-B1g
 241   0.0000       2.439859        66.3919   29-B3g
 242   0.0000       2.439859        66.3919   29-B2g
 243   0.0000       2.492263        67.8179   33-B2u
 244   0.0000       2.492263        67.8179   33-B1u
 245   0.0000       2.492263        67.8179   33-B3u
 246   0.0000       2.514926        68.4346   30-B2g
 247   0.0000       2.514926        68.4346   30-B3g
 248   0.0000       2.514926        68.4346   30-B1g
 249   0.0000       2.529880        68.8415   36-Ag
 250   0.0000       2.529880        68.8415   37-Ag
 251   0.0000       2.557925        69.6047   26-Au
 252   0.0000       2.584861        70.3376   34-B1u
 253   0.0000       2.584861        70.3376   34-B3u
 254   0.0000       2.584861        70.3376   34-B2u
 255   0.0000       2.629055        71.5402   31-B3g
 256   0.0000       2.629055        71.5402   31-B1g
 257   0.0000       2.629056        71.5403   31-B2g
 258   0.0000       2.650784        72.1315   32-B1g
 259   0.0000       2.650787        72.1316   32-B2g
 260   0.0000       2.650787        72.1316   32-B3g
 261   0.0000       2.671564        72.6970   38-Ag
 262   0.0000       2.673705        72.7552   35-B2u
 263   0.0000       2.673706        72.7552   35-B3u
 264   0.0000       2.673706        72.7552   35-B1u
 265   0.0000       2.714666        73.8698   27-Au
 266   0.0000       2.714683        73.8703   28-Au
 267   0.0000       2.740970        74.5856   39-Ag
 268   0.0000       2.777297        75.5741   36-B2u
 269   0.0000       2.777297        75.5741   36-B3u
 270   0.0000       2.777299        75.5741   36-B1u
 271   0.0000       2.803822        76.2959   29-Au
 272   0.0000       2.803830        76.2961   30-Au
 273   0.0000       2.821222        76.7693   33-B3g
 274   0.0000       2.821222        76.7694   33-B2g
 275   0.0000       2.821223        76.7694   33-B1g
 276   0.0000       2.857658        77.7608   40-Ag
 277   0.0000       2.857658        77.7608   41-Ag
 278   0.0000       2.895578        78.7927   37-B1u
 279   0.0000       2.895578        78.7927   37-B2u
 280   0.0000       2.895578        78.7927   37-B3u
 281   0.0000       2.925144        79.5972   38-B1u
 282   0.0000       2.925144        79.5972   38-B2u
 283   0.0000       2.925144        79.5972   38-B3u
 284   0.0000       2.945181        80.1424   34-B2g
 285   0.0000       2.945181        80.1424   34-B3g
 286   0.0000       2.945183        80.1425   34-B1g
 287   0.0000       2.955584        80.4255   39-B1u
 288   0.0000       2.955584        80.4255   39-B3u
 289   0.0000       2.955584        80.4255   39-B2u
 290   0.0000       2.968539        80.7781   31-Au
 291   0.0000       2.989161        81.3392   35-B3g
 292   0.0000       2.989161        81.3392   35-B2g
 293   0.0000       2.989161        81.3392   35-B1g
 294   0.0000       3.031144        82.4816   32-Au
 295   0.0000       3.031147        82.4817   33-Au
 296   0.0000       3.088792        84.0503   34-Au
 297   0.0000       3.100876        84.3791   42-Ag
 298   0.0000       3.100876        84.3791   43-Ag
 299   0.0000       3.137748        85.3825   36-B2g
 300   0.0000       3.137749        85.3825   36-B3g
 301   0.0000       3.137752        85.3826   36-B1g
 302   0.0000       3.140026        85.4444   37-B1g
 303   0.0000       3.140028        85.4445   37-B2g
 304   0.0000       3.140028        85.4445   37-B3g
 305   0.0000       3.191810        86.8536   38-B3g
 306   0.0000       3.191810        86.8536   38-B2g
 307   0.0000       3.191810        86.8536   38-B1g
 308   0.0000       3.226929        87.8092   40-B1u
 309   0.0000       3.226929        87.8092   40-B2u
 310   0.0000       3.226929        87.8092   40-B3u
 311   0.0000       3.306759        89.9815   35-Au
 312   0.0000       3.348303        91.1119   41-B3u
 313   0.0000       3.348303        91.1119   41-B2u
 314   0.0000       3.348303        91.1119   41-B1u
 315   0.0000       3.384741        92.1035   42-B1u
 316   0.0000       3.384741        92.1035   42-B3u
 317   0.0000       3.384741        92.1035   42-B2u
 318   0.0000       3.406782        92.7033   39-B3g
 319   0.0000       3.406784        92.7033   39-B1g
 320   0.0000       3.406788        92.7034   39-B2g
 321   0.0000       3.442271        93.6690   44-Ag
 322   0.0000       3.442835        93.6843   36-Au
 323   0.0000       3.513021        95.5942   45-Ag
 324   0.0000       3.513021        95.5942   46-Ag
 325   0.0000       3.521412        95.8225   40-B3g
 326   0.0000       3.521412        95.8225   40-B1g
 327   0.0000       3.521412        95.8225   40-B2g
 328   0.0000       3.529138        96.0327   41-B1g
 329   0.0000       3.529138        96.0327   41-B3g
 330   0.0000       3.529138        96.0327   41-B2g
 331   0.0000       3.576601        97.3243   37-Au
 332   0.0000       3.576601        97.3243   38-Au
 333   0.0000       3.614225        98.3481   39-Au
 334   0.0000       3.614226        98.3481   40-Au
 335   0.0000       3.643110        99.1341   43-B2u
 336   0.0000       3.643110        99.1341   43-B3u
 337   0.0000       3.643111        99.1341   43-B1u
 338   0.0000       3.795901       103.2917   44-B2u
 339   0.0000       3.795901       103.2917   44-B3u
 340   0.0000       3.795901       103.2917   44-B1u
 341   0.0000       3.952830       107.5620   42-B3g
 342   0.0000       3.952831       107.5620   42-B1g
 343   0.0000       3.952843       107.5623   42-B2g
 344   0.0000       4.050159       110.2104   43-B1g
 345   0.0000       4.050159       110.2104   43-B2g
 346   0.0000       4.050159       110.2104   43-B3g
 347   0.0000       4.123187       112.1976   45-B1u
 348   0.0000       4.123188       112.1976   45-B3u
 349   0.0000       4.123188       112.1976   45-B2u
 350   0.0000       4.123546       112.2074   41-Au
 351   0.0000       4.157898       113.1422   46-B1u
 352   0.0000       4.157898       113.1422   46-B2u
 353   0.0000       4.157898       113.1422   46-B3u
 354   0.0000       4.286628       116.6451   44-B3g
 355   0.0000       4.286628       116.6451   44-B1g
 356   0.0000       4.286628       116.6451   44-B2g
 357   0.0000       4.320844       117.5762   47-Ag
 358   0.0000       4.370345       118.9231   42-Au
 359   0.0000       4.370346       118.9231   43-Au
 360   0.0000       4.458253       121.3152   45-B1g
 361   0.0000       4.458253       121.3152   45-B2g
 362   0.0000       4.458253       121.3152   45-B3g
 363   0.0000       4.459303       121.3438   47-B2u
 364   0.0000       4.459303       121.3438   47-B3u
 365   0.0000       4.459303       121.3438   47-B1u
 366   0.0000       4.502353       122.5152   48-Ag
 367   0.0000       4.502353       122.5152   49-Ag
 368   0.0000       4.503212       122.5386   50-Ag
 369   0.0000       4.700139       127.8973   46-B3g
 370   0.0000       4.700140       127.8973   46-B1g
 371   0.0000       4.700144       127.8974   46-B2g
 372   0.0000       4.816853       131.0732   47-B1g
 373   0.0000       4.816854       131.0733   47-B3g
 374   0.0000       4.816854       131.0733   47-B2g
 375   0.0000       4.886430       132.9665   51-Ag
 376   0.0000       4.886430       132.9665   52-Ag
 377   0.0000       4.960636       134.9858   48-B1u
 378   0.0000       4.960636       134.9858   48-B3u
 379   0.0000       4.960636       134.9858   48-B2u
 380   0.0000       4.984321       135.6303   53-Ag
 381   0.0000       5.017726       136.5393   44-Au
 382   0.0000       5.017732       136.5394   45-Au
 383   0.0000       5.130401       139.6053   46-Au
 384   0.0000       5.169398       140.6665   49-B2u
 385   0.0000       5.169398       140.6665   49-B3u
 386   0.0000       5.169399       140.6665   49-B1u
 387   0.0000       5.224302       142.1605   50-B1u
 388   0.0000       5.224302       142.1605   50-B2u
 389   0.0000       5.224302       142.1605   50-B3u
 390   0.0000       5.261856       143.1824   54-Ag
 391   0.0000       5.261856       143.1824   55-Ag
 392   0.0000       5.304984       144.3560   47-Au
 393   0.0000       5.318309       144.7185   56-Ag
 394   0.0000       5.341494       145.3494   48-B1g
 395   0.0000       5.341494       145.3494   48-B3g
 396   0.0000       5.341494       145.3494   48-B2g
 397   0.0000       5.369086       146.1003   51-B2u
 398   0.0000       5.369086       146.1003   51-B3u
 399   0.0000       5.369086       146.1003   51-B1u
 400   0.0000       5.445203       148.1715   52-B1u
 401   0.0000       5.445203       148.1715   52-B3u
 402   0.0000       5.445203       148.1715   52-B2u
 403   0.0000       5.543085       150.8350   49-B2g
 404   0.0000       5.543085       150.8350   49-B3g
 405   0.0000       5.543085       150.8350   49-B1g
 406   0.0000       5.593624       152.2102   53-B1u
 407   0.0000       5.593624       152.2102   53-B2u
 408   0.0000       5.593624       152.2102   53-B3u
 409   0.0000       5.661121       154.0469   54-B1u
 410   0.0000       5.661121       154.0469   54-B3u
 411   0.0000       5.661121       154.0469   54-B2u
 412   0.0000       5.839853       158.9105   50-B1g
 413   0.0000       5.839854       158.9105   50-B2g
 414   0.0000       5.839854       158.9105   50-B3g
 415   0.0000       5.897887       160.4897   51-B2g
 416   0.0000       5.897887       160.4897   51-B1g
 417   0.0000       5.897887       160.4897   51-B3g
 418   0.0000       5.921734       161.1386   57-Ag
 419   0.0000       5.934823       161.4947   58-Ag
 420   0.0000       5.935501       161.5132   48-Au
 421   0.0000       5.985377       162.8704   55-B2u
 422   0.0000       5.985378       162.8704   55-B1u
 423   0.0000       5.985378       162.8704   55-B3u
 424   0.0000       6.015491       163.6898   59-Ag
 425   0.0000       6.015491       163.6898   60-Ag
 426   0.0000       6.035883       164.2447   56-B3u
 427   0.0000       6.035883       164.2447   56-B2u
 428   0.0000       6.035883       164.2447   56-B1u
 429   0.0000       6.055865       164.7885   57-B1u
 430   0.0000       6.055865       164.7885   57-B3u
 431   0.0000       6.055865       164.7885   57-B2u
 432   0.0000       6.062427       164.9670   52-B2g
 433   0.0000       6.062427       164.9670   52-B3g
 434   0.0000       6.062427       164.9670   52-B1g
 435   0.0000       6.131721       166.8526   49-Au
 436   0.0000       6.131721       166.8526   50-Au
 437   0.0000       6.147214       167.2742   58-B3u
 438   0.0000       6.147214       167.2742   58-B2u
 439   0.0000       6.147214       167.2742   58-B1u
 440   0.0000       6.150052       167.3514   53-B1g
 441   0.0000       6.150052       167.3514   53-B3g
 442   0.0000       6.150052       167.3514   53-B2g
 443   0.0000       6.172270       167.9560   61-Ag
 444   0.0000       6.191912       168.4905   59-B1u
 445   0.0000       6.191912       168.4905   59-B3u
 446   0.0000       6.191912       168.4905   59-B2u
 447   0.0000       6.199212       168.6891   51-Au
 448   0.0000       6.237342       169.7267   54-B3g
 449   0.0000       6.237342       169.7267   54-B1g
 450   0.0000       6.237342       169.7267   54-B2g
 451   0.0000       6.308209       171.6551   55-B3g
 452   0.0000       6.308210       171.6551   55-B1g
 453   0.0000       6.308210       171.6551   55-B2g
 454   0.0000       6.353858       172.8973   56-B1g
 455   0.0000       6.353859       172.8973   56-B2g
 456   0.0000       6.353859       172.8973   56-B3g
 457   0.0000       6.354409       172.9123   52-Au
 458   0.0000       6.379292       173.5894   62-Ag
 459   0.0000       6.379292       173.5894   63-Ag
 460   0.0000       6.384180       173.7224   53-Au
 461   0.0000       6.384184       173.7225   54-Au
 462   0.0000       6.450198       175.5188   60-B1u
 463   0.0000       6.450198       175.5188   60-B3u
 464   0.0000       6.450198       175.5188   60-B2u
 465   0.0000       6.450335       175.5225   61-B3u
 466   0.0000       6.450335       175.5225   61-B2u
 467   0.0000       6.450335       175.5225   61-B1u
 468   0.0000       6.451006       175.5408   57-B3g
 469   0.0000       6.451007       175.5408   57-B1g
 470   0.0000       6.451008       175.5408   57-B2g
 471   0.0000       6.477305       176.2564   64-Ag
 472   0.0000       6.477305       176.2564   65-Ag
 473   0.0000       6.500593       176.8901   62-B1u
 474   0.0000       6.500593       176.8901   62-B2u
 475   0.0000       6.500594       176.8901   62-B3u
 476   0.0000       6.577312       178.9778   58-B1g
 477   0.0000       6.577312       178.9778   58-B3g
 478   0.0000       6.577312       178.9778   58-B2g
 479   0.0000       6.580776       179.0720   59-B1g
 480   0.0000       6.580776       179.0720   59-B2g
 481   0.0000       6.580777       179.0720   59-B3g
 482   0.0000       6.652035       181.0111   63-B2u
 483   0.0000       6.652035       181.0111   63-B3u
 484   0.0000       6.652035       181.0111   63-B1u
 485   0.0000       6.656123       181.1223   66-Ag
 486   0.0000       6.691828       182.0939   60-B1g
 487   0.0000       6.691828       182.0939   60-B2g
 488   0.0000       6.691828       182.0939   60-B3g
 489   0.0000       6.718017       182.8065   55-Au
 490   0.0000       6.746821       183.5903   56-Au
 491   0.0000       6.746822       183.5904   57-Au
 492   0.0000       6.773752       184.3232   67-Ag
 493   0.0000       6.821872       185.6326   61-B3g
 494   0.0000       6.821872       185.6326   61-B1g
 495   0.0000       6.821872       185.6326   61-B2g
 496   0.0000       6.832737       185.9282   68-Ag
 497   0.0000       6.835907       186.0145   64-B2u
 498   0.0000       6.835907       186.0145   64-B3u
 499   0.0000       6.835907       186.0145   64-B1u
 500   0.0000       6.858395       186.6264   69-Ag
 501   0.0000       6.858395       186.6264   70-Ag
 502   0.0000       6.905278       187.9022   62-B1g
 503   0.0000       6.905278       187.9022   62-B2g
 504   0.0000       6.905278       187.9022   62-B3g
 505   0.0000       6.932859       188.6527   65-B1u
 506   0.0000       6.932859       188.6527   65-B2u
 507   0.0000       6.932859       188.6527   65-B3u
 508   0.0000       6.946400       189.0211   58-Au
 509   0.0000       6.967848       189.6048   66-B1u
 510   0.0000       6.967848       189.6048   66-B2u
 511   0.0000       6.967848       189.6048   66-B3u
 512   0.0000       7.043256       191.6567   59-Au
 513   0.0000       7.043261       191.6569   60-Au
 514   0.0000       7.096754       193.1125   63-B3g
 515   0.0000       7.096754       193.1125   63-B1g
 516   0.0000       7.096759       193.1126   63-B2g
 517   0.0000       7.203893       196.0279   67-B1u
 518   0.0000       7.203893       196.0279   67-B3u
 519   0.0000       7.203893       196.0279   67-B2u
 520   0.0000       7.214072       196.3049   61-Au
 521   0.0000       7.226316       196.6380   64-B1g
 522   0.0000       7.226316       196.6380   64-B3g
 523   0.0000       7.226316       196.6380   64-B2g
 524   0.0000       7.255949       197.4444   65-B3g
 525   0.0000       7.255949       197.4444   65-B1g
 526   0.0000       7.255950       197.4444   65-B2g
 527   0.0000       7.425163       202.0490   68-B2u
 528   0.0000       7.425163       202.0490   68-B3u
 529   0.0000       7.425163       202.0490   68-B1u
 530   0.0000       7.455779       202.8820   71-Ag
 531   0.0000       7.486301       203.7126   62-Au
 532   0.0000       7.486301       203.7126   63-Au
 533   0.0000       7.503670       204.1852   69-B1u
 534   0.0000       7.503670       204.1852   69-B3u
 535   0.0000       7.503670       204.1852   69-B2u
 536   0.0000       7.562200       205.7779   66-B3g
 537   0.0000       7.562200       205.7779   66-B2g
 538   0.0000       7.562200       205.7779   66-B1g
 539   0.0000       7.587284       206.4605   70-B2u
 540   0.0000       7.587284       206.4605   70-B3u
 541   0.0000       7.587284       206.4605   70-B1u
 542   0.0000       7.660240       208.4457   67-B3g
 543   0.0000       7.660241       208.4458   67-B2g
 544   0.0000       7.660242       208.4458   67-B1g
 545   0.0000       7.687107       209.1768   72-Ag
 546   0.0000       7.687107       209.1768   73-Ag
 547   0.0000       7.691809       209.3048   71-B2u
 548   0.0000       7.691810       209.3048   71-B3u
 549   0.0000       7.691810       209.3048   71-B1u
 550   0.0000       7.710165       209.8043   64-Au
 551   0.0000       7.764744       211.2894   68-B1g
 552   0.0000       7.764744       211.2894   68-B2g
 553   0.0000       7.764744       211.2894   68-B3g
 554   0.0000       7.798398       212.2052   69-B3g
 555   0.0000       7.798399       212.2052   69-B1g
 556   0.0000       7.798400       212.2052   69-B2g
 557   0.0000       7.849558       213.5973   72-B2u
 558   0.0000       7.849558       213.5973   72-B3u
 559   0.0000       7.849559       213.5974   72-B1u
 560   0.0000       7.910438       215.2540   73-B1u
 561   0.0000       7.910438       215.2540   73-B3u
 562   0.0000       7.910438       215.2540   73-B2u
 563   0.0000       7.956656       216.5116   70-B3g
 564   0.0000       7.956657       216.5116   70-B2g
 565   0.0000       7.956657       216.5116   70-B1g
 566   0.0000       7.999973       217.6903   65-Au
 567   0.0000       7.999973       217.6903   66-Au
 568   0.0000       8.014890       218.0962   71-B3g
 569   0.0000       8.014890       218.0962   71-B2g
 570   0.0000       8.014890       218.0962   71-B1g
 571   0.0000       8.029227       218.4864   74-Ag
 572   0.0000       8.029227       218.4864   75-Ag
 573   0.0000       8.042007       218.8341   67-Au
 574   0.0000       8.056970       219.2413   76-Ag
 575   0.0000       8.127055       221.1484   72-B3g
 576   0.0000       8.127055       221.1484   72-B2g
 577   0.0000       8.127055       221.1484   72-B1g
 578   0.0000       8.139676       221.4918   68-Au
 579   0.0000       8.205588       223.2854   77-Ag
 580   0.0000       8.205588       223.2854   78-Ag
 581   0.0000       8.265483       224.9152   74-B1u
 582   0.0000       8.265483       224.9152   74-B3u
 583   0.0000       8.265483       224.9152   74-B2u
 584   0.0000       8.266884       224.9534   73-B1g
 585   0.0000       8.266885       224.9534   73-B2g
 586   0.0000       8.266885       224.9534   73-B3g
 587   0.0000       8.300698       225.8735   75-B2u
 588   0.0000       8.300698       225.8735   75-B3u
 589   0.0000       8.300699       225.8735   75-B1u
 590   0.0000       8.310039       226.1277   69-Au
 591   0.0000       8.310040       226.1277   70-Au
 592   0.0000       8.331860       226.7214   76-B1u
 593   0.0000       8.331860       226.7214   76-B3u
 594   0.0000       8.331860       226.7214   76-B2u
 595   0.0000       8.469610       230.4698   74-B3g
 596   0.0000       8.469610       230.4698   74-B2g
 597   0.0000       8.469611       230.4698   74-B1g
 598   0.0000       8.510350       231.5784   71-Au
 599   0.0000       8.510350       231.5784   72-Au
 600   0.0000       8.628705       234.7990   79-Ag
 601   0.0000       8.628705       234.7990   80-Ag
 602   0.0000       8.670914       235.9476   77-B3u
 603   0.0000       8.670915       235.9476   77-B2u
 604   0.0000       8.670915       235.9476   77-B1u
 605   0.0000       8.676377       236.0962   75-B1g
 606   0.0000       8.676377       236.0962   75-B3g
 607   0.0000       8.676377       236.0962   75-B2g
 608   0.0000       8.721526       237.3248   76-B2g
 609   0.0000       8.721526       237.3248   76-B3g
 610   0.0000       8.721526       237.3248   76-B1g
 611   0.0000       8.736912       237.7435   73-Au
 612   0.0000       8.775449       238.7921   74-Au
 613   0.0000       8.775450       238.7921   75-Au
 614   0.0000       8.799614       239.4497   81-Ag
 615   0.0000       8.824730       240.1331   78-B1u
 616   0.0000       8.824730       240.1331   78-B2u
 617   0.0000       8.824730       240.1331   78-B3u
 618   0.0000       8.896954       242.0984   76-Au
 619   0.0000       8.934580       243.1223   79-B2u
 620   0.0000       8.934580       243.1223   79-B3u
 621   0.0000       8.934580       243.1223   79-B1u
 622   0.0000       9.092739       247.4260   80-B2u
 623   0.0000       9.092739       247.4260   80-B1u
 624   0.0000       9.092740       247.4260   80-B3u
 625   0.0000       9.114508       248.0184   77-B3g
 626   0.0000       9.114510       248.0184   77-B1g
 627   0.0000       9.114515       248.0186   77-B2g
 628   0.0000       9.174149       249.6413   78-B1g
 629   0.0000       9.174149       249.6413   78-B2g
 630   0.0000       9.174149       249.6413   78-B3g
 631   0.0000       9.320272       253.6175   77-Au
 632   0.0000       9.320272       253.6175   78-Au
 633   0.0000       9.326274       253.7808   79-B3g
 634   0.0000       9.326274       253.7808   79-B1g
 635   0.0000       9.326275       253.7809   79-B2g
 636   0.0000       9.350472       254.4393   80-B1g
 637   0.0000       9.350472       254.4393   80-B2g
 638   0.0000       9.350472       254.4393   80-B3g
 639   0.0000       9.447563       257.0813   81-B1u
 640   0.0000       9.447564       257.0813   81-B3u
 641   0.0000       9.447564       257.0813   81-B2u
 642   0.0000       9.660971       262.8884   81-B3g
 643   0.0000       9.660975       262.8885   81-B1g
 644   0.0000       9.660976       262.8885   81-B2g
 645   0.0000       9.672903       263.2131   82-B1u
 646   0.0000       9.672903       263.2131   82-B3u
 647   0.0000       9.672903       263.2131   82-B2u
 648   0.0000       9.694429       263.7988   82-Ag
 649   0.0000       9.744363       265.1576   83-Ag
 650   0.0000       9.744363       265.1576   84-Ag
 651   0.0000       9.753745       265.4129   79-Au
 652   0.0000       9.753746       265.4129   80-Au
 653   0.0000       9.861755       268.3520   83-B2u
 654   0.0000       9.861755       268.3520   83-B3u
 655   0.0000       9.861755       268.3520   83-B1u
 656   0.0000       9.967288       271.2237   82-B3g
 657   0.0000       9.967288       271.2237   82-B1g
 658   0.0000       9.967293       271.2238   82-B2g
 659   0.0000      10.108827       275.0752   84-B2u
 660   0.0000      10.108827       275.0752   84-B1u
 661   0.0000      10.108827       275.0752   84-B3u
 662   0.0000      10.353821       281.7418   83-B1g
 663   0.0000      10.353821       281.7418   83-B2g
 664   0.0000      10.353821       281.7418   83-B3g
 665   0.0000      10.391816       282.7757   81-Au
 666   0.0000      10.424824       283.6739   84-B2g
 667   0.0000      10.424824       283.6739   84-B3g
 668   0.0000      10.424824       283.6739   84-B1g
 669   0.0000      10.727512       291.9104   82-Au
 670   0.0000      10.921115       297.1786   83-Au
 671   0.0000      10.921115       297.1786   84-Au
 672   0.0000      12.648275       344.1771   85-Ag
 673   0.0000      13.027077       354.4848   85-B2u
 674   0.0000      13.027077       354.4848   85-B3u
 675   0.0000      13.027079       354.4848   85-B1u
 676   0.0000      13.162150       358.1603   85-B1g
 677   0.0000      13.162153       358.1604   85-B3g
 678   0.0000      13.162154       358.1604   85-B2g
 679   0.0000      13.495674       367.2360   85-Au
 680   0.0000      28.331778       770.9469   86-Ag
 681   0.0000      28.856730       785.2315   86-B3u
 682   0.0000      28.856730       785.2315   86-B1u
 683   0.0000      28.856730       785.2315   86-B2u
 684   0.0000      29.075349       791.1805   86-B3g
 685   0.0000      29.075350       791.1805   86-B2g
 686   0.0000      29.075350       791.1805   86-B1g
 687   0.0000      29.146151       793.1071   86-Au
 688   0.0000     147.362882      4009.9479   87-Ag
 689   0.0000     147.896838      4024.4776   87-B3u
 690   0.0000     147.896838      4024.4776   87-B2u
[...]
      g-1     :     0.000187
      g+2     :     0.000116
      g-2     :     0.000049
      g+3     :     0.000069
      g-3     :     0.000069
      g+4     :     0.000212
      g-4     :     0.000206
 12 H s       :     0.912653  s :     0.912653
      pz      :     0.013851  p :     0.041554
      px      :     0.013851
      py      :     0.013851
      dz2     :     0.001837  d :     0.005392
      dxz     :     0.000573
      dyz     :     0.000573
      dx2y2   :     0.001837
      dxy     :     0.000573
      f0      :     0.000029  f :     0.000279
      f+1     :     0.000050
      f-1     :     0.000050
      f+2     :     0.000063
      f-2     :     0.000003
      f+3     :     0.000042
      f-3     :     0.000042
 13 C s       :     3.262225  s :     3.262225
      pz      :     0.891363  p :     2.674089
      px      :     0.891363
      py      :     0.891363
      dz2     :     0.019084  d :     0.082115
      dxz     :     0.014650
      dyz     :     0.014650
      dx2y2   :     0.019084
      dxy     :     0.014649
      f0      :     0.003733  f :     0.020346
      f+1     :     0.003263
      f-1     :     0.003263
      f+2     :     0.002981
      f-2     :     0.000206
      f+3     :     0.003451
      f-3     :     0.003451
      g0      :     0.000251  g :     0.001347
      g+1     :     0.000187
      g-1     :     0.000187
      g+2     :     0.000116
      g-2     :     0.000049
      g+3     :     0.000069
      g-3     :     0.000069
      g+4     :     0.000212
      g-4     :     0.000206
 14 H s       :     0.912654  s :     0.912654
      pz      :     0.013851  p :     0.041554
      px      :     0.013851
      py      :     0.013851
      dz2     :     0.001837  d :     0.005392
      dxz     :     0.000573
      dyz     :     0.000573
      dx2y2   :     0.001837
      dxy     :     0.000573
      f0      :     0.000029  f :     0.000279
      f+1     :     0.000050
      f-1     :     0.000050
      f+2     :     0.000063
      f-2     :     0.000003
      f+3     :     0.000042
      f-3     :     0.000042
 15 C s       :     3.262225  s :     3.262225
      pz      :     0.891363  p :     2.674088
      px      :     0.891363
      py      :     0.891363
      dz2     :     0.019083  d :     0.082115
      dxz     :     0.014649
      dyz     :     0.014649
      dx2y2   :     0.019083
      dxy     :     0.014649
      f0      :     0.003733  f :     0.020346
      f+1     :     0.003263
      f-1     :     0.003263
      f+2     :     0.002981
      f-2     :     0.000206
      f+3     :     0.003451
      f-3     :     0.003451
      g0      :     0.000251  g :     0.001347
      g+1     :     0.000187
      g-1     :     0.000187
      g+2     :     0.000116
      g-2     :     0.000049
      g+3     :     0.000069
      g-3     :     0.000069
      g+4     :     0.000212
      g-4     :     0.000206


                     *******************************
                     * LOEWDIN POPULATION ANALYSIS *
                     *******************************

----------------------
LOEWDIN ATOMIC CHARGES
----------------------
   0 H :   -0.088152
   1 C :    0.088152
   2 H :   -0.088152
   3 C :    0.088152
   4 H :   -0.088152
   5 C :    0.088152
   6 H :   -0.088152
   7 C :    0.088152
   8 H :   -0.088152
   9 C :    0.088152
  10 H :   -0.088152
  11 C :    0.088152
  12 H :   -0.088152
  13 C :    0.088152
  14 H :   -0.088152
  15 C :    0.088152

-------------------------------
LOEWDIN REDUCED ORBITAL CHARGES
-------------------------------
  0 H s       :     0.817717  s :     0.817717
      pz      :     0.065606  p :     0.196817
      px      :     0.065606
      py      :     0.065606
      dz2     :     0.017072  d :     0.064067
      dxz     :     0.009974
      dyz     :     0.009974
      dx2y2   :     0.017072
      dxy     :     0.009974
      f0      :     0.000959  f :     0.009552
      f+1     :     0.001411
      f-1     :     0.001411
      f+2     :     0.001682
      f-2     :     0.001629
      f+3     :     0.001230
      f-3     :     0.001230
  1 C s       :     2.546688  s :     2.546688
      pz      :     0.867445  p :     2.602336
      px      :     0.867445
      py      :     0.867445
      dz2     :     0.107927  d :     0.591198
      dxz     :     0.125114
      dyz     :     0.125114
      dx2y2   :     0.107927
      dxy     :     0.125114
      f0      :     0.027803  f :     0.160675
      f+1     :     0.025176
      f-1     :     0.025176
      f+2     :     0.023600
      f-2     :     0.006468
      f+3     :     0.026227
      f-3     :     0.026227
      g0      :     0.001431  g :     0.010951
      g+1     :     0.001821
      g-1     :     0.001821
      g+2     :     0.000856
      g-2     :     0.000449
      g+3     :     0.000645
      g-3     :     0.000645
      g+4     :     0.001267
      g-4     :     0.002017
  2 H s       :     0.817717  s :     0.817717
      pz      :     0.065606  p :     0.196817
      px      :     0.065606
      py      :     0.065606
      dz2     :     0.017072  d :     0.064067
      dxz     :     0.009974
      dyz     :     0.009974
      dx2y2   :     0.017072
      dxy     :     0.009974
      f0      :     0.000959  f :     0.009552
      f+1     :     0.001411
      f-1     :     0.001411
      f+2     :     0.001682
      f-2     :     0.001629
      f+3     :     0.001230
      f-3     :     0.001230
  3 C s       :     2.546688  s :     2.546688
      pz      :     0.867445  p :     2.602336
      px      :     0.867445
      py      :     0.867445
      dz2     :     0.107927  d :     0.591198
      dxz     :     0.125114
      dyz     :     0.125114
      dx2y2   :     0.107927
      dxy     :     0.125114
      f0      :     0.027803  f :     0.160675
      f+1     :     0.025176
      f-1     :     0.025176
      f+2     :     0.023600
      f-2     :     0.006468
      f+3     :     0.026227
      f-3     :     0.026227
      g0      :     0.001431  g :     0.010951
      g+1     :     0.001821
      g-1     :     0.001821
      g+2     :     0.000856
      g-2     :     0.000449
      g+3     :     0.000645
      g-3     :     0.000645
      g+4     :     0.001267
      g-4     :     0.002017
  4 H s       :     0.817717  s :     0.817717
      pz      :     0.065606  p :     0.196817
      px      :     0.065606
      py      :     0.065606
      dz2     :     0.017072  d :     0.064067
      dxz     :     0.009974
      dyz     :     0.009974
      dx2y2   :     0.017072
      dxy     :     0.009974
      f0      :     0.000959  f :     0.009552
      f+1     :     0.001411
      f-1     :     0.001411
      f+2     :     0.001682
      f-2     :     0.001629
      f+3     :     0.001230
      f-3     :     0.001230
  5 C s       :     2.546688  s :     2.546688
      pz      :     0.867445  p :     2.602336
      px      :     0.867445
      py      :     0.867445
      dz2     :     0.107927  d :     0.591198
      dxz     :     0.125114
      dyz     :     0.125114
      dx2y2   :     0.107927
      dxy     :     0.125114
      f0      :     0.027803  f :     0.160675
      f+1     :     0.025176
      f-1     :     0.025176
      f+2     :     0.023600
      f-2     :     0.006468
      f+3     :     0.026227
      f-3     :     0.026227
      g0      :     0.001431  g :     0.010951
      g+1     :     0.001821
      g-1     :     0.001821
      g+2     :     0.000856
      g-2     :     0.000449
      g+3     :     0.000645
      g-3     :     0.000645
      g+4     :     0.001267
      g-4     :     0.002017
  6 H s       :     0.817717  s :     0.817717
      pz      :     0.065606  p :     0.196817
      px      :     0.065606
      py      :     0.065606
      dz2     :     0.017072  d :     0.064067
      dxz     :     0.009974
      dyz     :     0.009974
      dx2y2   :     0.017072
      dxy     :     0.009974
      f0      :     0.000959  f :     0.009552
      f+1     :     0.001411
      f-1     :     0.001411
      f+2     :     0.001682
      f-2     :     0.001629
      f+3     :     0.001230
      f-3     :     0.001230
  7 C s       :     2.546688  s :     2.546688
      pz      :     0.867445  p :     2.602336
      px      :     0.867445
      py      :     0.867445
      dz2     :     0.107927  d :     0.591198
      dxz     :     0.125114
      dyz     :     0.125114
      dx2y2   :     0.107927
      dxy     :     0.125114
      f0      :     0.027803  f :     0.160675
      f+1     :     0.025176
      f-1     :     0.025176
      f+2     :     0.023600
      f-2     :     0.006468
      f+3     :     0.026227
      f-3     :     0.026227
      g0      :     0.001431  g :     0.010951
      g+1     :     0.001821
      g-1     :     0.001821
      g+2     :     0.000856
      g-2     :     0.000449
      g+3     :     0.000645
      g-3     :     0.000645
      g+4     :     0.001267
      g-4     :     0.002017
  8 H s       :     0.817717  s :     0.817717
      pz      :     0.065606  p :     0.196817
      px      :     0.065606
      py      :     0.065606
      dz2     :     0.017072  d :     0.064067
      dxz     :     0.009974
      dyz     :     0.009974
      dx2y2   :     0.017072
      dxy     :     0.009974
      f0      :     0.000959  f :     0.009552
      f+1     :     0.001411
      f-1     :     0.001411
      f+2     :     0.001682
      f-2     :     0.001629
      f+3     :     0.001230
      f-3     :     0.001230
  9 C s       :     2.546688  s :     2.546688
      pz      :     0.867445  p :     2.602336
      px      :     0.867445
      py      :     0.867445
      dz2     :     0.107927  d :     0.591198
      dxz     :     0.125114
      dyz     :     0.125114
      dx2y2   :     0.107927
      dxy     :     0.125114
      f0      :     0.027803  f :     0.160675
      f+1     :     0.025176
      f-1     :     0.025176
      f+2     :     0.023600
      f-2     :     0.006468
      f+3     :     0.026227
      f-3     :     0.026227
      g0      :     0.001431  g :     0.010951
      g+1     :     0.001821
      g-1     :     0.001821
      g+2     :     0.000856
      g-2     :     0.000449
      g+3     :     0.000645
      g-3     :     0.000645
      g+4     :     0.001267
      g-4     :     0.002017
 10 H s       :     0.817717  s :     0.817717
      pz      :     0.065606  p :     0.196817
      px      :     0.065606
      py      :     0.065606
      dz2     :     0.017072  d :     0.064067
      dxz     :     0.009974
      dyz     :     0.009974
      dx2y2   :     0.017072
      dxy     :     0.009974
      f0      :     0.000959  f :     0.009552
      f+1     :     0.001411
      f-1     :     0.001411
      f+2     :     0.001682
      f-2     :     0.001629
      f+3     :     0.001230
      f-3     :     0.001230
 11 C s       :     2.546688  s :     2.546688
      pz      :     0.867445  p :     2.602336
      px      :     0.867445
      py      :     0.867445
      dz2     :     0.107927  d :     0.591198
      dxz     :     0.125114
      dyz     :     0.125114
      dx2y2   :     0.107927
      dxy     :     0.125114
      f0      :     0.027803  f :     0.160675
      f+1     :     0.025176
      f-1     :     0.025176
      f+2     :     0.023600
      f-2     :     0.006468
      f+3     :     0.026227
      f-3     :     0.026227
      g0      :     0.001431  g :     0.010951
      g+1     :     0.001821
      g-1     :     0.001821
      g+2     :     0.000856
      g-2     :     0.000449
      g+3     :     0.000645
      g-3     :     0.000645
      g+4     :     0.001267
      g-4     :     0.002017
 12 H s       :     0.817717  s :     0.817717
      pz      :     0.065606  p :     0.196817
      px      :     0.065606
      py      :     0.065606
      dz2     :     0.017072  d :     0.064067
      dxz     :     0.009974
      dyz     :     0.009974
      dx2y2   :     0.017072
      dxy     :     0.009974
      f0      :     0.000959  f :     0.009552
      f+1     :     0.001411
      f-1     :     0.001411
      f+2     :     0.001682
      f-2     :     0.001629
      f+3     :     0.001230
      f-3     :     0.001230
 13 C s       :     2.546688  s :     2.546688
      pz      :     0.867445  p :     2.602336
      px      :     0.867445
      py      :     0.867445
      dz2     :     0.107927  d :     0.591198
      dxz     :     0.125114
      dyz     :     0.125114
      dx2y2   :     0.107927
      dxy     :     0.125114
      f0      :     0.027803  f :     0.160675
      f+1     :     0.025176
      f-1     :     0.025176
      f+2     :     0.023600
      f-2     :     0.006468
      f+3     :     0.026227
      f-3     :     0.026227
      g0      :     0.001431  g :     0.010951
      g+1     :     0.001821
      g-1     :     0.001821
      g+2     :     0.000856
      g-2     :     0.000449
      g+3     :     0.000645
      g-3     :     0.000645
      g+4     :     0.001267
      g-4     :     0.002017
 14 H s       :     0.817717  s :     0.817717
      pz      :     0.065606  p :     0.196817
      px      :     0.065606
      py      :     0.065606
      dz2     :     0.017072  d :     0.064067
      dxz     :     0.009974
      dyz     :     0.009974
      dx2y2   :     0.017072
      dxy     :     0.009974
      f0      :     0.000959  f :     0.009552
      f+1     :     0.001411
      f-1     :     0.001411
      f+2     :     0.001682
      f-2     :     0.001629
      f+3     :     0.001230
      f-3     :     0.001230
 15 C s       :     2.546688  s :     2.546688
      pz      :     0.867445  p :     2.602336
      px      :     0.867445
      py      :     0.867445
      dz2     :     0.107927  d :     0.591198
      dxz     :     0.125114
      dyz     :     0.125114
      dx2y2   :     0.107927
      dxy     :     0.125114
      f0      :     0.027803  f :     0.160675
      f+1     :     0.025176
      f-1     :     0.025176
      f+2     :     0.023600
      f-2     :     0.006468
      f+3     :     0.026227
      f-3     :     0.026227
      g0      :     0.001431  g :     0.010951
      g+1     :     0.001821
      g-1     :     0.001821
      g+2     :     0.000856
      g-2     :     0.000449
      g+3     :     0.000645
      g-3     :     0.000645
      g+4     :     0.001267
      g-4     :     0.002017


                      *****************************
                      * MAYER POPULATION ANALYSIS *
                      *****************************

  NA   - Mulliken gross atomic population
  ZA   - Total nuclear charge
  QA   - Mulliken gross atomic charge
  VA   - Mayer's total valence
  BVA  - Mayer's bonded valence
  FA   - Mayer's free valence

  ATOM       NA         ZA         QA         VA         BVA        FA
  0 H      0.9599     1.0000     0.0401     1.0220     1.0220    -0.0000
  1 C      6.0401     6.0000    -0.0401     3.8250     3.8250     0.0000
  2 H      0.9599     1.0000     0.0401     1.0220     1.0220    -0.0000
  3 C      6.0401     6.0000    -0.0401     3.8250     3.8250     0.0000
  4 H      0.9599     1.0000     0.0401     1.0220     1.0220     0.0000
  5 C      6.0401     6.0000    -0.0401     3.8250     3.8250    -0.0000
  6 H      0.9599     1.0000     0.0401     1.0220     1.0220     0.0000
  7 C      6.0401     6.0000    -0.0401     3.8250     3.8250     0.0000
  8 H      0.9599     1.0000     0.0401     1.0220     1.0220    -0.0000
  9 C      6.0401     6.0000    -0.0401     3.8250     3.8250    -0.0000
 10 H      0.9599     1.0000     0.0401     1.0220     1.0220    -0.0000
 11 C      6.0401     6.0000    -0.0401     3.8250     3.8250    -0.0000
 12 H      0.9599     1.0000     0.0401     1.0220     1.0220    -0.0000
 13 C      6.0401     6.0000    -0.0401     3.8250     3.8250    -0.0000
 14 H      0.9599     1.0000     0.0401     1.0220     1.0220     0.0000
 15 C      6.0401     6.0000    -0.0401     3.8250     3.8250    -0.0000

  Mayer bond orders larger than 0.1
B(  0-H ,  1-C ) :   0.9581 B(  1-C ,  3-C ) :   0.9636 B(  1-C ,  5-C ) :   0.9636 
B(  1-C ,  7-C ) :   0.9636 B(  2-H ,  3-C ) :   0.9581 B(  3-C ,  9-C ) :   0.9636 
B(  3-C , 11-C ) :   0.9636 B(  4-H ,  5-C ) :   0.9581 B(  5-C ,  9-C ) :   0.9636 
B(  5-C , 13-C ) :   0.9636 B(  6-H ,  7-C ) :   0.9581 B(  7-C , 11-C ) :   0.9636 
B(  7-C , 13-C ) :   0.9636 B(  8-H ,  9-C ) :   0.9581 B(  9-C , 15-C ) :   0.9636 
B( 10-H , 11-C ) :   0.9581 B( 11-C , 15-C ) :   0.9636 B( 12-H , 13-C ) :   0.9581 
B( 13-C , 15-C ) :   0.9636 B( 14-H , 15-C ) :   0.9581 

-------
TIMINGS
-------

Total SCF time: 0 days 0 hours 14 min 26 sec 

Total time                  ....     866.081 sec
Sum of individual times     ....     865.487 sec  ( 99.9%)

Fock matrix formation       ....     863.391 sec  ( 99.7%)
  XC integration            ....       5.616 sec  (  0.7% of F)
    Basis function eval.    ....       0.514 sec  (  9.2% of XC)
    Density eval.           ....       1.202 sec  ( 21.4% of XC)
    XC-Functional eval.     ....       0.030 sec  (  0.5% of XC)
    XC-Potential eval.      ....       3.501 sec  ( 62.3% of XC)
Diagonalization             ....       0.127 sec  (  0.0%)
Density matrix formation    ....       0.029 sec  (  0.0%)
Population analysis         ....       0.437 sec  (  0.1%)
Initial guess               ....       0.138 sec  (  0.0%)
Orbital Transformation      ....       0.000 sec  (  0.0%)
Orbital Orthonormalization  ....       0.121 sec  (  0.0%)
DIIS solution               ....       0.054 sec  (  0.0%)
SOSCF solution              ....       0.689 sec  (  0.1%)
Grid generation             ....       0.622 sec  (  0.1%)

-------------------------   --------------------
FINAL SINGLE POINT ENERGY      -309.378569495632
-------------------------   --------------------

                                *** OPTIMIZATION RUN DONE ***

                            ***************************************
                            *     ORCA property calculations      *
                            ***************************************

                                    ---------------------
                                    Active property flags
                                    ---------------------
   (+) Dipole Moment


------------------------------------------------------------------------------
                       ORCA ELECTRIC PROPERTIES CALCULATION
------------------------------------------------------------------------------

Dipole Moment Calculation                       ... on
Quadrupole Moment Calculation                   ... off
Polarizability Calculation                      ... off
GBWName                                         ... /home/vladimir/git/private/ORCA/C8H8/cubane/optimize/DFT/B3LYP/QZVP/./cubane.gbw
Electron density file                           ... /home/vladimir/git/private/ORCA/C8H8/cubane/optimize/DFT/B3LYP/QZVP/./cubane.scfp.tmp

-------------
DIPOLE MOMENT
-------------
                                X             Y             Z
Electronic contribution:      0.00000       0.00000       0.00000
Nuclear contribution   :     -0.00000      -0.00000      -0.00000
                        -----------------------------------------
Total Dipole Moment    :      0.00000       0.00000       0.00000
                        -----------------------------------------
Magnitude (a.u.)       :      0.00000
Magnitude (Debye)      :      0.00000


Timings for individual modules:

Sum of individual times         ...     6928.493 sec (= 115.475 min)
GTO integral calculation        ...        4.239 sec (=   0.071 min)   0.1 %
SCF iterations                  ...     4759.336 sec (=  79.322 min)  68.7 %
SCF Gradient evaluation         ...     2164.732 sec (=  36.079 min)  31.2 %
Geometry relaxation             ...        0.186 sec (=   0.003 min)   0.0 %
                             ****ORCA TERMINATED NORMALLY****
TOTAL RUN TIME: 0 days 1 hours 55 minutes 29 seconds 90 msec
