 argument  1 = cubane
  Unable to open cubane --- appending .nw
                                         
                                         


             Northwest Computational Chemistry Package (NWChem) 6.1.1
             --------------------------------------------------------


                    Environmental Molecular Sciences Laboratory
                       Pacific Northwest National Laboratory
                                Richland, WA 99352

                              Copyright (c) 1994-2012
                       Pacific Northwest National Laboratory
                            Battelle Memorial Institute

             NWChem is an open-source computational chemistry package
                        distributed under the terms of the
                      Educational Community License (ECL) 2.0
             A copy of the license is included with this distribution
                              in the LICENSE.TXT file

                                  ACKNOWLEDGMENT
                                  --------------

            This software and its documentation were developed at the
            EMSL at Pacific Northwest National Laboratory, a multiprogram
            national laboratory, operated for the U.S. Department of Energy
            by Battelle under Contract Number DE-AC05-76RL01830. Support
            for this work was provided by the Department of Energy Office
            of Biological and Environmental Research, Office of Basic
            Energy Sciences, and the Office of Advanced Scientific Computing.


           Job information
           ---------------

    hostname      = kbob-G41MT-S2
    program       = nwchem
    date          = Tue Apr  2 22:50:04 2013

    compiled      = Вт._февр._12_22:37:34_2013
    source        = /opt/nwchem-6.1.1-src
    nwchem branch = 6.1.1
    input         = cubane.nw
    prefix        = cubane.
    data base     = ./cubane.db
    status        = startup
    nproc         =        2
    time left     =     -1s



           Memory information
           ------------------

    heap     =   63236801 doubles =    482.5 Mbytes
    stack    =   63236801 doubles =    482.5 Mbytes
    global   =  126473600 doubles =    964.9 Mbytes (distinct from heap & stack)
    total    =  252947202 doubles =   1929.8 Mbytes
    verify   = yes
    hardfail = no 


           Directory information
           ---------------------

  0 permanent = .
  0 scratch   = .




                                NWChem Input Module
                                -------------------


                    cubane def2-QZVPP DFT geometry optimization
                    -------------------------------------------

 Scaling coordinates for geometry "geometry" by  1.889725989
 (inverse scale =  0.529177249)

 Turning off AUTOSYM since
 SYMMETRY directive was detected!


          ------
          auto-z
          ------


                             Geometry "geometry" -> ""
                             -------------------------

 Output coordinates in angstroms (scale by  1.889725989 to convert to a.u.)

  No.       Tag          Charge          X              Y              Z
 ---- ---------------- ---------- -------------- -------------- --------------
    1 H                    1.0000     1.41109888     1.41109888     1.41109888
    2 H                    1.0000    -1.41109888    -1.41109888     1.41109888
    3 H                    1.0000    -1.41109888     1.41109888    -1.41109888
    4 H                    1.0000     1.41109888    -1.41109888    -1.41109888
    5 H                    1.0000     1.41109888     1.41109888    -1.41109888
    6 H                    1.0000    -1.41109888    -1.41109888    -1.41109888
    7 H                    1.0000     1.41109888    -1.41109888     1.41109888
    8 H                    1.0000    -1.41109888     1.41109888     1.41109888
    9 C                    6.0000     0.78435179     0.78435179     0.78435179
   10 C                    6.0000    -0.78435179    -0.78435179     0.78435179
   11 C                    6.0000    -0.78435179     0.78435179    -0.78435179
   12 C                    6.0000     0.78435179    -0.78435179    -0.78435179
   13 C                    6.0000     0.78435179     0.78435179    -0.78435179
   14 C                    6.0000    -0.78435179    -0.78435179    -0.78435179
   15 C                    6.0000     0.78435179    -0.78435179     0.78435179
   16 C                    6.0000    -0.78435179     0.78435179     0.78435179

      Atomic Mass 
      ----------- 

      H                  1.007825
      C                 12.000000


 Effective nuclear repulsion energy (a.u.)     367.4141392265

            Nuclear Dipole moment (a.u.) 
            ----------------------------
        X                 Y               Z
 ---------------- ---------------- ----------------
     0.0000000000     0.0000000000     0.0000000000

      Symmetry information
      --------------------

 Group name              Oh       
 Group number             44
 Group order              48
 No. of unique centers     2

      Symmetry unique atoms

     1    9



                                Z-matrix (autoz)
                                -------- 

 Units are Angstrom for bonds and degrees for angles

      Type          Name      I     J     K     L     M      Value
      ----------- --------  ----- ----- ----- ----- ----- ----------
    1 Stretch                  1     9                       1.08556
    2 Stretch                  2    10                       1.08556
    3 Stretch                  3    11                       1.08556
    4 Stretch                  4    12                       1.08556
    5 Stretch                  5    13                       1.08556
    6 Stretch                  6    14                       1.08556
    7 Stretch                  7    15                       1.08556
    8 Stretch                  8    16                       1.08556
    9 Stretch                  9    13                       1.56870
   10 Stretch                  9    15                       1.56870
   11 Stretch                  9    16                       1.56870
   12 Stretch                 10    14                       1.56870
   13 Stretch                 10    15                       1.56870
   14 Stretch                 10    16                       1.56870
   15 Stretch                 11    13                       1.56870
   16 Stretch                 11    14                       1.56870
   17 Stretch                 11    16                       1.56870
   18 Stretch                 12    13                       1.56870
   19 Stretch                 12    14                       1.56870
   20 Stretch                 12    15                       1.56870
   21 Bend                     1     9    13               125.26439
   22 Bend                     1     9    15               125.26439
   23 Bend                     1     9    16               125.26439
   24 Bend                     2    10    14               125.26439
   25 Bend                     2    10    15               125.26439
   26 Bend                     2    10    16               125.26439
   27 Bend                     3    11    13               125.26439
   28 Bend                     3    11    14               125.26439
   29 Bend                     3    11    16               125.26439
   30 Bend                     4    12    13               125.26439
   31 Bend                     4    12    14               125.26439
   32 Bend                     4    12    15               125.26439
   33 Bend                     5    13     9               125.26439
   34 Bend                     5    13    11               125.26439
   35 Bend                     5    13    12               125.26439
   36 Bend                     6    14    10               125.26439
   37 Bend                     6    14    11               125.26439
   38 Bend                     6    14    12               125.26439
   39 Bend                     7    15     9               125.26439
   40 Bend                     7    15    10               125.26439
   41 Bend                     7    15    12               125.26439
   42 Bend                     8    16     9               125.26439
   43 Bend                     8    16    10               125.26439
   44 Bend                     8    16    11               125.26439
   45 Bend                     9    13    11                90.00000
   46 Bend                     9    13    12                90.00000
   47 Bend                     9    15    10                90.00000
   48 Bend                     9    15    12                90.00000
   49 Bend                     9    16    10                90.00000
   50 Bend                     9    16    11                90.00000
   51 Bend                    10    14    11                90.00000
   52 Bend                    10    14    12                90.00000
   53 Bend                    10    15    12                90.00000
   54 Bend                    10    16    11                90.00000
   55 Bend                    11    13    12                90.00000
   56 Bend                    11    14    12                90.00000
   57 Bend                    13     9    15                90.00000
   58 Bend                    13     9    16                90.00000
   59 Bend                    13    11    14                90.00000
   60 Bend                    13    11    16                90.00000
   61 Bend                    13    12    14                90.00000
   62 Bend                    13    12    15                90.00000
   63 Bend                    14    10    15                90.00000
   64 Bend                    14    10    16                90.00000
   65 Bend                    14    11    16                90.00000
   66 Bend                    14    12    15                90.00000
   67 Bend                    15     9    16                90.00000
   68 Bend                    15    10    16                90.00000
   69 Torsion                  1     9    13     5           0.00000
   70 Torsion                  1     9    13    11        -135.00000
   71 Torsion                  1     9    13    12         135.00000
   72 Torsion                  1     9    15     7           0.00000
   73 Torsion                  1     9    15    10         135.00000
   74 Torsion                  1     9    15    12        -135.00000
   75 Torsion                  1     9    16     8           0.00000
   76 Torsion                  1     9    16    10        -135.00000
   77 Torsion                  1     9    16    11         135.00000
   78 Torsion                  2    10    14     6           0.00000
   79 Torsion                  2    10    14    11         135.00000
   80 Torsion                  2    10    14    12        -135.00000
   81 Torsion                  2    10    15     7           0.00000
   82 Torsion                  2    10    15     9        -135.00000
   83 Torsion                  2    10    15    12         135.00000
   84 Torsion                  2    10    16     8           0.00000
   85 Torsion                  2    10    16     9         135.00000
   86 Torsion                  2    10    16    11        -135.00000
   87 Torsion                  3    11    13     5           0.00000
   88 Torsion                  3    11    13     9         135.00000
   89 Torsion                  3    11    13    12        -135.00000
   90 Torsion                  3    11    14     6           0.00000
   91 Torsion                  3    11    14    10        -135.00000
   92 Torsion                  3    11    14    12         135.00000
   93 Torsion                  3    11    16     8           0.00000
   94 Torsion                  3    11    16     9        -135.00000
   95 Torsion                  3    11    16    10         135.00000
   96 Torsion                  4    12    13     5           0.00000
   97 Torsion                  4    12    13     9        -135.00000
   98 Torsion                  4    12    13    11         135.00000
   99 Torsion                  4    12    14     6           0.00000
  100 Torsion                  4    12    14    10         135.00000
  101 Torsion                  4    12    14    11        -135.00000
  102 Torsion                  4    12    15     7           0.00000
  103 Torsion                  4    12    15     9         135.00000
  104 Torsion                  4    12    15    10        -135.00000
  105 Torsion                  5    13     9    15        -135.00000
  106 Torsion                  5    13     9    16         135.00000
  107 Torsion                  5    13    11    14         135.00000
  108 Torsion                  5    13    11    16        -135.00000
  109 Torsion                  5    13    12    14        -135.00000
  110 Torsion                  5    13    12    15         135.00000
  111 Torsion                  6    14    10    15         135.00000
  112 Torsion                  6    14    10    16        -135.00000
  113 Torsion                  6    14    11    13        -135.00000
  114 Torsion                  6    14    11    16         135.00000
  115 Torsion                  6    14    12    13         135.00000
  116 Torsion                  6    14    12    15        -135.00000
  117 Torsion                  7    15     9    13         135.00000
  118 Torsion                  7    15     9    16        -135.00000
  119 Torsion                  7    15    10    14        -135.00000
  120 Torsion                  7    15    10    16         135.00000
  121 Torsion                  7    15    12    13        -135.00000
  122 Torsion                  7    15    12    14         135.00000
  123 Torsion                  8    16     9    13        -135.00000
  124 Torsion                  8    16     9    15         135.00000
  125 Torsion                  8    16    10    14         135.00000
  126 Torsion                  8    16    10    15        -135.00000
  127 Torsion                  8    16    11    13         135.00000
  128 Torsion                  8    16    11    14        -135.00000
  129 Torsion                  9    13    11    14         -90.00000
  130 Torsion                  9    13    11    16           0.00000
  131 Torsion                  9    13    12    14          90.00000
  132 Torsion                  9    13    12    15           0.00000
  133 Torsion                  9    15    10    14          90.00000
  134 Torsion                  9    15    10    16           0.00000
  135 Torsion                  9    15    12    13           0.00000
  136 Torsion                  9    15    12    14         -90.00000
  137 Torsion                  9    16    10    14         -90.00000
  138 Torsion                  9    16    10    15           0.00000
  139 Torsion                  9    16    11    13           0.00000
  140 Torsion                  9    16    11    14          90.00000
  141 Torsion                 10    14    11    13          90.00000
  142 Torsion                 10    14    11    16           0.00000
  143 Torsion                 10    14    12    13         -90.00000
  144 Torsion                 10    14    12    15           0.00000
  145 Torsion                 10    15     9    13         -90.00000
  146 Torsion                 10    15     9    16           0.00000
  147 Torsion                 10    15    12    13          90.00000
  148 Torsion                 10    15    12    14           0.00000
  149 Torsion                 10    16     9    13          90.00000
  150 Torsion                 10    16     9    15           0.00000
  151 Torsion                 10    16    11    13         -90.00000
  152 Torsion                 10    16    11    14           0.00000
  153 Torsion                 11    13     9    15          90.00000
  154 Torsion                 11    13     9    16           0.00000
  155 Torsion                 11    13    12    14           0.00000
  156 Torsion                 11    13    12    15         -90.00000
  157 Torsion                 11    14    10    15         -90.00000
  158 Torsion                 11    14    10    16           0.00000
  159 Torsion                 11    14    12    13           0.00000
  160 Torsion                 11    14    12    15          90.00000
  161 Torsion                 11    16     9    13           0.00000
  162 Torsion                 11    16     9    15         -90.00000
  163 Torsion                 11    16    10    14           0.00000
  164 Torsion                 11    16    10    15          90.00000
  165 Torsion                 12    13     9    15           0.00000
  166 Torsion                 12    13     9    16         -90.00000
  167 Torsion                 12    13    11    14           0.00000
  168 Torsion                 12    13    11    16          90.00000
  169 Torsion                 12    14    10    15           0.00000
  170 Torsion                 12    14    10    16          90.00000
  171 Torsion                 12    14    11    13           0.00000
  172 Torsion                 12    14    11    16         -90.00000
  173 Torsion                 12    15     9    13           0.00000
  174 Torsion                 12    15     9    16          90.00000
  175 Torsion                 12    15    10    14           0.00000
  176 Torsion                 12    15    10    16         -90.00000


            XYZ format geometry
            -------------------
    16
 geometry
 H                     1.41109888     1.41109888     1.41109888
 H                    -1.41109888    -1.41109888     1.41109888
 H                    -1.41109888     1.41109888    -1.41109888
 H                     1.41109888    -1.41109888    -1.41109888
 H                     1.41109888     1.41109888    -1.41109888
 H                    -1.41109888    -1.41109888    -1.41109888
 H                     1.41109888    -1.41109888     1.41109888
 H                    -1.41109888     1.41109888     1.41109888
 C                     0.78435179     0.78435179     0.78435179
 C                    -0.78435179    -0.78435179     0.78435179
 C                    -0.78435179     0.78435179    -0.78435179
 C                     0.78435179    -0.78435179    -0.78435179
 C                     0.78435179     0.78435179    -0.78435179
 C                    -0.78435179    -0.78435179    -0.78435179
 C                     0.78435179    -0.78435179     0.78435179
 C                    -0.78435179     0.78435179     0.78435179

 ==============================================================================
                                internuclear distances
 ------------------------------------------------------------------------------
       center one      |      center two      | atomic units |  angstroms
 ------------------------------------------------------------------------------
    9 C                |   1 H                |     2.05141  |     1.08556
   10 C                |   2 H                |     2.05141  |     1.08556
   11 C                |   3 H                |     2.05141  |     1.08556
   12 C                |   4 H                |     2.05141  |     1.08556
   13 C                |   5 H                |     2.05141  |     1.08556
   13 C                |   9 C                |     2.96442  |     1.56870
   13 C                |  11 C                |     2.96442  |     1.56870
   13 C                |  12 C                |     2.96442  |     1.56870
   14 C                |   6 H                |     2.05141  |     1.08556
   14 C                |  10 C                |     2.96442  |     1.56870
   14 C                |  11 C                |     2.96442  |     1.56870
   14 C                |  12 C                |     2.96442  |     1.56870
   15 C                |   7 H                |     2.05141  |     1.08556
   15 C                |   9 C                |     2.96442  |     1.56870
   15 C                |  10 C                |     2.96442  |     1.56870
   15 C                |  12 C                |     2.96442  |     1.56870
   16 C                |   8 H                |     2.05141  |     1.08556
   16 C                |   9 C                |     2.96442  |     1.56870
   16 C                |  10 C                |     2.96442  |     1.56870
   16 C                |  11 C                |     2.96442  |     1.56870
 ------------------------------------------------------------------------------
                         number of included internuclear distances:         20
 ==============================================================================



 ==============================================================================
                                 internuclear angles
 ------------------------------------------------------------------------------
        center 1       |       center 2       |       center 3       |  degrees
 ------------------------------------------------------------------------------
    1 H                |   9 C                |  13 C                |   125.26
    1 H                |   9 C                |  15 C                |   125.26
    1 H                |   9 C                |  16 C                |   125.26
   13 C                |   9 C                |  15 C                |    90.00
   13 C                |   9 C                |  16 C                |    90.00
   15 C                |   9 C                |  16 C                |    90.00
    2 H                |  10 C                |  14 C                |   125.26
    2 H                |  10 C                |  15 C                |   125.26
    2 H                |  10 C                |  16 C                |   125.26
   14 C                |  10 C                |  15 C                |    90.00
   14 C                |  10 C                |  16 C                |    90.00
   15 C                |  10 C                |  16 C                |    90.00
    3 H                |  11 C                |  13 C                |   125.26
    3 H                |  11 C                |  14 C                |   125.26
    3 H                |  11 C                |  16 C                |   125.26
   13 C                |  11 C                |  14 C                |    90.00
   13 C                |  11 C                |  16 C                |    90.00
   14 C                |  11 C                |  16 C                |    90.00
    4 H                |  12 C                |  13 C                |   125.26
    4 H                |  12 C                |  14 C                |   125.26
    4 H                |  12 C                |  15 C                |   125.26
   13 C                |  12 C                |  14 C                |    90.00
   13 C                |  12 C                |  15 C                |    90.00
   14 C                |  12 C                |  15 C                |    90.00
    5 H                |  13 C                |   9 C                |   125.26
    5 H                |  13 C                |  11 C                |   125.26
    5 H                |  13 C                |  12 C                |   125.26
    9 C                |  13 C                |  11 C                |    90.00
    9 C                |  13 C                |  12 C                |    90.00
   11 C                |  13 C                |  12 C                |    90.00
    6 H                |  14 C                |  10 C                |   125.26
    6 H                |  14 C                |  11 C                |   125.26
    6 H                |  14 C                |  12 C                |   125.26
   10 C                |  14 C                |  11 C                |    90.00
   10 C                |  14 C                |  12 C                |    90.00
   11 C                |  14 C                |  12 C                |    90.00
    7 H                |  15 C                |   9 C                |   125.26
    7 H                |  15 C                |  10 C                |   125.26
    7 H                |  15 C                |  12 C                |   125.26
    9 C                |  15 C                |  10 C                |    90.00
    9 C                |  15 C                |  12 C                |    90.00
   10 C                |  15 C                |  12 C                |    90.00
    8 H                |  16 C                |   9 C                |   125.26
    8 H                |  16 C                |  10 C                |   125.26
    8 H                |  16 C                |  11 C                |   125.26
    9 C                |  16 C                |  10 C                |    90.00
    9 C                |  16 C                |  11 C                |    90.00
   10 C                |  16 C                |  11 C                |    90.00
 ------------------------------------------------------------------------------
                            number of included internuclear angles:         48
 ==============================================================================



                      Basis "ao basis" -> "" (cartesian)
                      -----
  H (Hydrogen)
  ------------
            Exponent  Coefficients 
       -------------- ---------------------------------------------------------
  1 S  1.90691690E+02  0.000708
  1 S  2.86055320E+01  0.005468
  1 S  6.50959430E+00  0.027967
  1 S  1.84124550E+00  0.107645

  2 S  5.98537250E-01  1.000000

  3 S  2.13976240E-01  1.000000

  4 S  8.03162860E-02  1.000000

  5 P  2.29200000E+00  1.000000

  6 P  8.38000000E-01  1.000000

  7 P  2.92000000E-01  1.000000

  8 D  2.06200000E+00  1.000000

  9 D  6.62000000E-01  1.000000

 10 F  1.39700000E+00  1.000000

  C (Carbon)
  ----------
            Exponent  Coefficients 
       -------------- ---------------------------------------------------------
  1 S  6.70250710E+04  0.000039
  1 S  1.00399865E+04  0.000301
  1 S  2.28493169E+03  0.001579
  1 S  6.47141221E+02  0.006609
  1 S  2.11094723E+02  0.023367
  1 S  7.61776439E+01  0.070421
  1 S  2.96338392E+01  0.173603
  1 S  1.21877851E+01  0.322923

  2 S  5.30260063E+01  0.074897
  2 S  1.52585028E+01  0.761362

  3 S  5.24039575E+00  1.000000

  4 S  2.29050224E+00  1.000000

  5 S  6.96732830E-01  1.000000

  6 S  2.75993374E-01  1.000000

  7 S  1.07398844E-01  1.000000

  8 P  1.05125551E+02  0.000846
  8 P  2.48844611E+01  0.006627
  8 P  7.86372308E+00  0.030120
  8 P  2.84070018E+00  0.099951
  8 P  1.12271373E+00  0.238263

  9 P  4.60507256E-01  1.000000

 10 P  1.89375309E-01  1.000000

 11 P  7.59837916E-02  1.000000

 12 D  1.84800000E+00  1.000000

 13 D  6.49000000E-01  1.000000

 14 D  2.28000000E-01  1.000000

 15 F  1.41900000E+00  1.000000

 16 F  4.85000000E-01  1.000000

 17 G  1.01100000E+00  1.000000



 Summary of "ao basis" -> "" (cartesian)
 ------------------------------------------------------------------------------
       Tag                 Description            Shells   Functions and Types
 ---------------- ------------------------------  ------  ---------------------
 H                         def2-QZVPP               10       35   4s3p2d1f
 C                         def2-QZVPP               17       72   7s4p3d2f1g




                           NWChem Geometry Optimization
                           ----------------------------




                    cubane def2-QZVPP DFT geometry optimization


 maximum gradient threshold         (gmax) =   0.000450
 rms gradient threshold             (grms) =   0.000300
 maximum cartesian step threshold   (xmax) =   0.001800
 rms cartesian step threshold       (xrms) =   0.001200
 fixed trust radius                (trust) =   0.300000
 maximum step size to saddle      (sadstp) =   0.100000
 energy precision                  (eprec) =   5.0D-06
 maximum number of steps          (nptopt) =   20
 initial hessian option           (inhess) =    0
 line search option               (linopt) =    1
 hessian update option            (modupd) =    1
 saddle point option              (modsad) =    0
 initial eigen-mode to follow     (moddir) =    0
 initial variable to follow       (vardir) =    0
 follow first negative mode     (firstneg) =    T
 apply conjugacy                    (opcg) =    F
 source of zmatrix                         =   autoz   


          -------------------
          Energy Minimization
          -------------------


 Names of Z-matrix variables 
    1              2              3              4              5         
    6              7              8              9             10         
   11             12             13             14             15         
   16             17             18             19             20         
   21             22             23             24             25         
   26             27             28             29             30         
   31             32             33             34             35         
   36             37             38             39             40         
   41             42             43             44             45         
   46             47             48             49             50         
   51             52             53             54             55         
   56             57             58             59             60         
   61             62             63             64             65         
   66             67             68             69             70         
   71             72             73             74             75         
   76             77             78             79             80         
   81             82             83             84             85         
   86             87             88             89             90         
   91             92             93             94             95         
   96             97             98             99            100         
  101            102            103            104            105         
  106            107            108            109            110         
  111            112            113            114            115         
  116            117            118            119            120         
  121            122            123            124            125         
  126            127            128            129            130         
  131            132            133            134            135         
  136            137            138            139            140         
  141            142            143            144            145         
  146            147            148            149            150         
  151            152            153            154            155         
  156            157            158            159            160         
  161            162            163            164            165         
  166            167            168            169            170         
  171            172            173            174            175         
  176         

 Variables with the same non-blank name are constrained to be equal


 Using diagonal initial Hessian 
 Scaling for Hessian diagonals: bonds = 1.00  angles = 0.25  torsions = 0.10

          --------
          Step   0
          --------


                         Geometry "geometry" -> "geometry"
                         ---------------------------------

 Output coordinates in angstroms (scale by  1.889725989 to convert to a.u.)

  No.       Tag          Charge          X              Y              Z
 ---- ---------------- ---------- -------------- -------------- --------------
    1 H                    1.0000     1.41109888     1.41109888     1.41109888
    2 H                    1.0000    -1.41109888    -1.41109888     1.41109888
    3 H                    1.0000    -1.41109888     1.41109888    -1.41109888
    4 H                    1.0000     1.41109888    -1.41109888    -1.41109888
    5 H                    1.0000     1.41109888     1.41109888    -1.41109888
    6 H                    1.0000    -1.41109888    -1.41109888    -1.41109888
    7 H                    1.0000     1.41109888    -1.41109888     1.41109888
    8 H                    1.0000    -1.41109888     1.41109888     1.41109888
    9 C                    6.0000     0.78435179     0.78435179     0.78435179
   10 C                    6.0000    -0.78435179    -0.78435179     0.78435179
   11 C                    6.0000    -0.78435179     0.78435179    -0.78435179
   12 C                    6.0000     0.78435179    -0.78435179    -0.78435179
   13 C                    6.0000     0.78435179     0.78435179    -0.78435179
   14 C                    6.0000    -0.78435179    -0.78435179    -0.78435179
   15 C                    6.0000     0.78435179    -0.78435179     0.78435179
   16 C                    6.0000    -0.78435179     0.78435179     0.78435179

      Atomic Mass 
      ----------- 

      H                  1.007825
      C                 12.000000


 Effective nuclear repulsion energy (a.u.)     367.4141392265

            Nuclear Dipole moment (a.u.) 
            ----------------------------
        X                 Y               Z
 ---------------- ---------------- ----------------
     0.0000000000     0.0000000000     0.0000000000

      Symmetry information
      --------------------

 Group name              Oh       
 Group number             44
 Group order              48
 No. of unique centers     2

      Symmetry unique atoms

     1    9


                                 NWChem DFT Module
                                 -----------------


                    cubane def2-QZVPP DFT geometry optimization



            General Information
            -------------------
          SCF calculation type: DFT
          Wavefunction type:  closed shell.
          No. of atoms     :    16
          No. of electrons :    56
           Alpha electrons :    28
            Beta electrons :    28
          Charge           :     0
          Spin multiplicity:     1
          Use of symmetry is: on ; symmetry adaption is: on 
          Maximum number of iterations:  30
          AO basis - number of functions:   856
                     number of shells:   216
          Convergence on energy requested: 1.00D-06
          Convergence on density requested: 1.00D-05
          Convergence on gradient requested: 5.00D-04

              XC Information
              --------------
                         B3LYP Method XC Potential
                     Hartree-Fock (Exact) Exchange  0.200          
                        Slater Exchange Functional  0.800 local    
                    Becke 1988 Exchange Functional  0.720 non-local
              Lee-Yang-Parr Correlation Functional  0.810          
                  VWN I RPA Correlation Functional  0.190 local    

             Grid Information
             ----------------
          Grid used for XC integration:  medium    
          Radial quadrature: Mura-Knowles        
          Angular quadrature: Lebedev. 
          Tag              B.-S. Rad. Rad. Pts. Rad. Cut. Ang. Pts.
          ---              ---------- --------- --------- ---------
          H                   0.35       45          13.0       434
          C                   0.70       49          12.0       434
          Grid pruning is: on 
          Number of quadrature shells:    94
          Spatial weights used:  Erf1

          Convergence Information
          -----------------------
          Convergence aids based upon iterative change in 
          total energy or number of iterations. 
          Levelshifting, if invoked, occurs when the 
          HOMO/LUMO gap drops below (HL_TOL): 1.00D-02
          DIIS, if invoked, will attempt to extrapolate 
          using up to (NFOCK): 10 stored Fock matrices.

                    Damping( 0%)  Levelshifting(0.5)       DIIS
                  --------------- ------------------- ---------------
          dE  on:    start            ASAP                start   
          dE off:    2 iters         30 iters            30 iters 


      Screening Tolerance Information
      -------------------------------
          Density screening/tol_rho: 1.00D-10
          AO Gaussian exp screening on grid/accAOfunc:  14
          CD Gaussian exp screening on grid/accCDfunc:  20
          XC Gaussian exp screening on grid/accXCfunc:  20
          Schwarz screening/accCoul: 1.00D-08


 WARNING : Found    14 linear dependencies 
 S eigenvalue threshold:     1.00000E-05
 Smallest S eigenvalue :     9.54813E-08
 Largest  S eigenvalue :     9.90231E-06


 !! The overlap matrix has  14 vectors deemed linearly dependent with
    eigenvalues:
 9.55D-08 5.45D-07 5.45D-07 5.45D-07 1.68D-06 5.73D-06 5.73D-06 7.59D-06
 7.59D-06 7.59D-06 7.81D-06 9.90D-06 9.90D-06 9.90D-06


      Superposition of Atomic Density Guess
      -------------------------------------

 Sum of atomic energies:        -305.37913672

      Non-variational initial energy
      ------------------------------

 Total energy =    -311.911766
 1-e energy   =   -1137.619456
 2-e energy   =     458.293551
 HOMO         =      -0.296998
 LUMO         =       0.027745


      Symmetry analysis of molecular orbitals - initial
      -------------------------------------------------

  Numbering of irreducible representations: 

     1 a1g         2 a1u         3 a2g         4 a2u         5 eg      
     6 eu          7 t1g         8 t1u         9 t2g        10 t2u     

  Orbital symmetries:

     1 a1g         2 t1u         3 t1u         4 t1u         5 t2g     
     6 t2g         7 t2g         8 a2u         9 a1g        10 t1u     
    11 t1u        12 t1u        13 t2g        14 t2g        15 t2g     
    16 a1g        17 a2u        18 eg         19 eg         20 t1u     
    21 t1u        22 t1u        23 t2u        24 t2u        25 t2u     
    26 t2g        27 t2g        28 t2g        29 t1u        30 t1u     
    31 t1u        32 a1g        33 t2g        34 t2g        35 t2g     
    36 t1u        37 t1u        38 t1u     

   Time after variat. SCF:    183.2
   Time prior to 1st pass:    183.2

 Integral file          = ./cubane.aoints.0
 Record size in doubles =  65536        No. of integs per rec  =  32766
 Max. records in memory =      0        Max. records in file   = 100450
 No. of bits per label  =     16        No. of bits per value  =     64


 #quartets = 7.572D+06 #integrals = 1.625D+09 #direct =  0.0% #cached =100.0%


File balance: exchanges=     1  moved=  1654  time=  23.3


 Grid_pts file          = ./cubane.gridpts.0
 Record size in doubles =  12289        No. of grid_pts per rec  =   3070
 Max. records in memory =      9        Max. recs in file   =    410052

 Grid integrated density:      56.030454255107
 Requested integration accuracy:   0.10E-05

           Memory utilization after 1st SCF pass: 
           Heap Space remaining (MW):       62.97            62968578
          Stack Space remaining (MW):       63.23            63232345

   convergence    iter        energy       DeltaE   RMS-Dens  Diis-err    time
 ---------------- ----- ----------------- --------- --------- ---------  ------
 d= 0,ls=0.0,diis     1   -309.5140645927 -6.77D+02  1.02D-03  2.81D+00   405.7
 Grid integrated density:      56.000296517460
 Requested integration accuracy:   0.10E-05
 d= 0,ls=0.0,diis     2   -309.5790287741 -6.50D-02  2.76D-04  6.46D-02   474.2
 Grid integrated density:      56.000317256459
 Requested integration accuracy:   0.10E-05
 d= 0,ls=0.0,diis     3   -309.5736596551  5.37D-03  1.71D-04  1.12D-01   538.3
 Grid integrated density:      56.000307166433
 Requested integration accuracy:   0.10E-05
 d= 0,ls=0.0,diis     4   -309.5856572749 -1.20D-02  2.73D-05  9.76D-04   608.8
 Grid integrated density:      56.000306915489
 Requested integration accuracy:   0.10E-05
 d= 0,ls=0.0,diis     5   -309.5857757893 -1.19D-04  3.53D-06  2.33D-05   671.6
 Grid integrated density:      56.000306966461
 Requested integration accuracy:   0.10E-05
 d= 0,ls=0.0,diis     6   -309.5857790410 -3.25D-06  4.31D-07  1.49D-07   734.7
 Grid integrated density:      56.000306955309
 Requested integration accuracy:   0.10E-05
 d= 0,ls=0.0,diis     7   -309.5857790615 -2.05D-08  3.99D-08  1.67D-08   798.0


         Total DFT energy =     -309.585779061529
      One electron energy =    -1145.064939251988
           Coulomb energy =      514.537767333403
    Exchange-Corr. energy =      -46.472746369486
 Nuclear repulsion energy =      367.414139226542

 Numeric. integr. density =       56.000306955309

     Total iterative time =    614.8s



                  Occupations of the irreducible representations
                  ----------------------------------------------

                     irrep           alpha         beta
                     --------     --------     --------
                     a1g               3.0          3.0
                     a1u               0.0          0.0
                     a2g               0.0          0.0
                     a2u               2.0          2.0
                     eg                2.0          2.0
                     eu                0.0          0.0
                     t1g               0.0          0.0
                     t1u               9.0          9.0
                     t2g               9.0          9.0
                     t2u               3.0          3.0


                       DFT Final Molecular Orbital Analysis
                       ------------------------------------

 Vector    8  Occ=2.000000D+00  E=-1.017277D+01  Symmetry=a2u
              MO Center= -3.8D-11,  1.4D-12, -5.4D-13, r^2= 1.9D+00
   Bfn.  Coefficient  Atom+Function         Bfn.  Coefficient  Atom+Function  
  ----- ------------  ---------------      ----- ------------  ---------------
   281     -0.194781   9 C  s               353     -0.194781  10 C  s         
   425     -0.194781  11 C  s               497     -0.194781  12 C  s         
   569      0.194781  13 C  s               641      0.194781  14 C  s         
   713      0.194781  15 C  s               785      0.194781  16 C  s         

 Vector    9  Occ=2.000000D+00  E=-9.429723D-01  Symmetry=a1g
              MO Center= -7.6D-17, -2.8D-17,  9.7D-17, r^2= 1.6D+00
   Bfn.  Coefficient  Atom+Function         Bfn.  Coefficient  Atom+Function  
  ----- ------------  ---------------      ----- ------------  ---------------
   286      0.118915   9 C  s               358      0.118915  10 C  s         
   430      0.118915  11 C  s               502      0.118915  12 C  s         
   574      0.118915  13 C  s               646      0.118915  14 C  s         
   718      0.118915  15 C  s               790      0.118915  16 C  s         

 Vector   10  Occ=2.000000D+00  E=-7.250665D-01  Symmetry=t1u
              MO Center= -5.6D-17,  9.7D-17,  2.8D-17, r^2= 2.6D+00
   Bfn.  Coefficient  Atom+Function         Bfn.  Coefficient  Atom+Function  
  ----- ------------  ---------------      ----- ------------  ---------------
   358     -0.187979  10 C  s               574      0.187979  13 C  s         

 Vector   11  Occ=2.000000D+00  E=-7.250665D-01  Symmetry=t1u
              MO Center=  2.8D-17,  5.6D-17, -3.2D-16, r^2= 2.6D+00
   Bfn.  Coefficient  Atom+Function         Bfn.  Coefficient  Atom+Function  
  ----- ------------  ---------------      ----- ------------  ---------------
   286      0.215564   9 C  s               646     -0.215564  14 C  s         

 Vector   12  Occ=2.000000D+00  E=-7.250665D-01  Symmetry=t1u
              MO Center= -1.3D-16,  7.6D-17,  0.0D+00, r^2= 2.6D+00
   Bfn.  Coefficient  Atom+Function         Bfn.  Coefficient  Atom+Function  
  ----- ------------  ---------------      ----- ------------  ---------------
   430      0.204061  11 C  s               718     -0.204061  15 C  s         
   502     -0.163340  12 C  s               790      0.163340  16 C  s         

 Vector   13  Occ=2.000000D+00  E=-5.603061D-01  Symmetry=t2g
              MO Center=  4.4D-14, -2.1D-14,  6.7D-16, r^2= 4.1D+00
   Bfn.  Coefficient  Atom+Function         Bfn.  Coefficient  Atom+Function  
  ----- ------------  ---------------      ----- ------------  ---------------
   501      0.109198  12 C  s               789      0.109198  16 C  s         
   429     -0.104649  11 C  s               717     -0.104649  15 C  s         

 Vector   14  Occ=2.000000D+00  E=-5.603061D-01  Symmetry=t2g
              MO Center=  5.1D-16,  1.1D-16, -1.1D-16, r^2= 4.1D+00
   Bfn.  Coefficient  Atom+Function         Bfn.  Coefficient  Atom+Function  
  ----- ------------  ---------------      ----- ------------  ---------------
   357      0.143072  10 C  s               573      0.143072  13 C  s         
   429     -0.130691  11 C  s               717     -0.130691  15 C  s         

 Vector   15  Occ=2.000000D+00  E=-5.603061D-01  Symmetry=t2g
              MO Center=  1.3D-14,  1.6D-14,  2.4D-14, r^2= 4.1D+00
   Bfn.  Coefficient  Atom+Function         Bfn.  Coefficient  Atom+Function  
  ----- ------------  ---------------      ----- ------------  ---------------
   285      0.145261   9 C  s               645      0.145261  14 C  s         

 Vector   16  Occ=2.000000D+00  E=-5.340530D-01  Symmetry=a1g
              MO Center=  2.5D-15,  9.7D-17,  9.6D-15, r^2= 4.3D+00
   Bfn.  Coefficient  Atom+Function         Bfn.  Coefficient  Atom+Function  
  ----- ------------  ---------------      ----- ------------  ---------------
     3      0.069166   1 H  s                38      0.069166   2 H  s         
    73      0.069166   3 H  s               108      0.069166   4 H  s         
   143      0.069166   5 H  s               178      0.069166   6 H  s         
   213      0.069166   7 H  s               248      0.069166   8 H  s         

 Vector   17  Occ=2.000000D+00  E=-4.662291D-01  Symmetry=a2u
              MO Center= -4.5D-14, -3.3D-15, -1.4D-14, r^2= 5.1D+00
   Bfn.  Coefficient  Atom+Function         Bfn.  Coefficient  Atom+Function  
  ----- ------------  ---------------      ----- ------------  ---------------
     3      0.078290   1 H  s                38      0.078290   2 H  s         
    73      0.078290   3 H  s               108      0.078290   4 H  s         
   143     -0.078290   5 H  s               178     -0.078290   6 H  s         
   213     -0.078290   7 H  s               248     -0.078290   8 H  s         
   285      0.072034   9 C  s               357      0.072034  10 C  s         

 Vector   18  Occ=2.000000D+00  E=-4.339715D-01  Symmetry=eg
              MO Center= -5.6D-17, -9.7D-17, -6.9D-17, r^2= 2.6D+00
   Bfn.  Coefficient  Atom+Function         Bfn.  Coefficient  Atom+Function  
  ----- ------------  ---------------      ----- ------------  ---------------
   288     -0.091370   9 C  px              360      0.091370  10 C  px        
   432      0.091370  11 C  px              504     -0.091370  12 C  px        
   576     -0.091370  13 C  px              648      0.091370  14 C  px        
   720     -0.091370  15 C  px              792      0.091370  16 C  px        
   291     -0.087290   9 C  px              363      0.087290  10 C  px        

 Vector   19  Occ=2.000000D+00  E=-4.339715D-01  Symmetry=eg
              MO Center= -1.8D-14,  1.1D-14, -1.2D-13, r^2= 2.6D+00
   Bfn.  Coefficient  Atom+Function         Bfn.  Coefficient  Atom+Function  
  ----- ------------  ---------------      ----- ------------  ---------------
   289      0.080728   9 C  py              361     -0.080728  10 C  py        
   433      0.080728  11 C  py              505     -0.080728  12 C  py        
   577      0.080728  13 C  py              649     -0.080728  14 C  py        
   721     -0.080728  15 C  py              793      0.080728  16 C  py        
   290     -0.077529   9 C  pz              362     -0.077529  10 C  pz        

 Vector   20  Occ=2.000000D+00  E=-4.265692D-01  Symmetry=t1u
              MO Center= -1.5D-15, -8.4D-15, -2.7D-14, r^2= 4.2D+00
   Bfn.  Coefficient  Atom+Function         Bfn.  Coefficient  Atom+Function  
  ----- ------------  ---------------      ----- ------------  ---------------
    38     -0.184111   2 H  s               143      0.184111   5 H  s         

 Vector   21  Occ=2.000000D+00  E=-4.265692D-01  Symmetry=t1u
              MO Center= -2.7D-15, -6.7D-14,  1.6D-13, r^2= 4.2D+00
   Bfn.  Coefficient  Atom+Function         Bfn.  Coefficient  Atom+Function  
  ----- ------------  ---------------      ----- ------------  ---------------
     3     -0.178138   1 H  s               178      0.178138   6 H  s         

 Vector   22  Occ=2.000000D+00  E=-4.265692D-01  Symmetry=t1u
              MO Center=  2.8D-17,  8.1D-14, -3.2D-14, r^2= 4.2D+00
   Bfn.  Coefficient  Atom+Function         Bfn.  Coefficient  Atom+Function  
  ----- ------------  ---------------      ----- ------------  ---------------
   108     -0.184664   4 H  s               248      0.184664   8 H  s         

 Vector   23  Occ=2.000000D+00  E=-2.759367D-01  Symmetry=t2u
              MO Center=  1.5D-13, -8.8D-14,  2.4D-14, r^2= 2.9D+00
   Bfn.  Coefficient  Atom+Function         Bfn.  Coefficient  Atom+Function  
  ----- ------------  ---------------      ----- ------------  ---------------
   434      0.115139  11 C  pz              506     -0.115139  12 C  pz        
   722      0.115139  15 C  pz              794     -0.115139  16 C  pz        
   437      0.106632  11 C  pz              509     -0.106632  12 C  pz        
   725      0.106632  15 C  pz              797     -0.106632  16 C  pz        
   288      0.103810   9 C  px              504     -0.103810  12 C  px        

 Vector   24  Occ=2.000000D+00  E=-2.759367D-01  Symmetry=t2u
              MO Center=  2.7D-14,  7.5D-14, -2.2D-14, r^2= 2.9D+00
   Bfn.  Coefficient  Atom+Function         Bfn.  Coefficient  Atom+Function  
  ----- ------------  ---------------      ----- ------------  ---------------
   361      0.108423  10 C  py              505     -0.108423  12 C  py        
   577      0.108423  13 C  py              793     -0.108423  16 C  py        
   360     -0.106228  10 C  px              432      0.106228  11 C  px        
   576     -0.106228  13 C  px              720      0.106228  15 C  px        
   364      0.100412  10 C  py              508     -0.100412  12 C  py        

 Vector   25  Occ=2.000000D+00  E=-2.759367D-01  Symmetry=t2u
              MO Center=  1.0D-13,  1.8D-13, -2.0D-13, r^2= 2.9D+00
   Bfn.  Coefficient  Atom+Function         Bfn.  Coefficient  Atom+Function  
  ----- ------------  ---------------      ----- ------------  ---------------
   290     -0.124445   9 C  pz              362      0.124445  10 C  pz        
   578      0.124445  13 C  pz              650     -0.124445  14 C  pz        
   293     -0.115250   9 C  pz              365      0.115250  10 C  pz        
   581      0.115250  13 C  pz              653     -0.115250  14 C  pz        

 Vector   26  Occ=2.000000D+00  E=-2.638408D-01  Symmetry=t2g
              MO Center= -1.5D-13, -2.5D-14, -1.3D-14, r^2= 3.5D+00
   Bfn.  Coefficient  Atom+Function         Bfn.  Coefficient  Atom+Function  
  ----- ------------  ---------------      ----- ------------  ---------------
    73      0.127769   3 H  s               213      0.127769   7 H  s         
    38     -0.121830   2 H  s               143     -0.121830   5 H  s         

 Vector   27  Occ=2.000000D+00  E=-2.638408D-01  Symmetry=t2g
              MO Center= -4.4D-14, -1.8D-13,  3.1D-13, r^2= 3.5D+00
   Bfn.  Coefficient  Atom+Function         Bfn.  Coefficient  Atom+Function  
  ----- ------------  ---------------      ----- ------------  ---------------
     3      0.138796   1 H  s               178      0.138796   6 H  s         

 Vector   28  Occ=2.000000D+00  E=-2.638408D-01  Symmetry=t2g
              MO Center= -7.7D-14,  2.8D-14, -9.2D-14, r^2= 3.5D+00
   Bfn.  Coefficient  Atom+Function         Bfn.  Coefficient  Atom+Function  
  ----- ------------  ---------------      ----- ------------  ---------------
   108      0.152205   4 H  s               248      0.152205   8 H  s         

 Vector   29  Occ=0.000000D+00  E= 1.998627D-02  Symmetry=a1g
              MO Center= -5.1D-12,  1.1D-11,  1.0D-11, r^2= 1.3D+01
   Bfn.  Coefficient  Atom+Function         Bfn.  Coefficient  Atom+Function  
  ----- ------------  ---------------      ----- ------------  ---------------
   287      1.651343   9 C  s               359      1.651343  10 C  s         
   431      1.651343  11 C  s               503      1.651343  12 C  s         
   575      1.651343  13 C  s               647      1.651343  14 C  s         
   719      1.651343  15 C  s               791      1.651343  16 C  s         
     4     -1.273468   1 H  s                39     -1.273468   2 H  s         

 Vector   30  Occ=0.000000D+00  E= 2.223455D-02  Symmetry=t1u
              MO Center=  4.1D-12,  2.0D-12, -3.0D-12, r^2= 9.9D+00
   Bfn.  Coefficient  Atom+Function         Bfn.  Coefficient  Atom+Function  
  ----- ------------  ---------------      ----- ------------  ---------------
   359     -4.249880  10 C  s               575      4.249880  13 C  s         
   503      2.373910  12 C  s               791     -2.373910  16 C  s         
   287      1.445126   9 C  s               647     -1.445126  14 C  s         
    38     -0.960584   2 H  s               143      0.960584   5 H  s         
   384      0.914852  10 C  dxx             600     -0.914852  13 C  dxx       

 Vector   31  Occ=0.000000D+00  E= 2.223455D-02  Symmetry=t1u
              MO Center=  3.4D-12, -3.4D-12,  2.4D-12, r^2= 9.9D+00
   Bfn.  Coefficient  Atom+Function         Bfn.  Coefficient  Atom+Function  
  ----- ------------  ---------------      ----- ------------  ---------------
   431     -4.363333  11 C  s               719      4.363333  15 C  s         
   503      2.078770  12 C  s               791     -2.078770  16 C  s         
   287      1.168431   9 C  s               647     -1.168431  14 C  s         
   359      1.116132  10 C  s               575     -1.116132  13 C  s         
    73     -0.986227   3 H  s               213      0.986227   7 H  s         

 Vector   32  Occ=0.000000D+00  E= 2.223455D-02  Symmetry=t1u
              MO Center= -3.5D-12, -9.6D-12, -9.9D-12, r^2= 9.9D+00
   Bfn.  Coefficient  Atom+Function         Bfn.  Coefficient  Atom+Function  
  ----- ------------  ---------------      ----- ------------  ---------------
   287     -4.003072   9 C  s               647      4.003072  14 C  s         
   503      3.085688  12 C  s               791     -3.085688  16 C  s         
     3     -0.904799   1 H  s               178      0.904799   6 H  s         
   315      0.860752   9 C  dyy             317      0.861647   9 C  dzz       
   675     -0.860752  14 C  dyy             677     -0.861647  14 C  dzz       

 Vector   33  Occ=0.000000D+00  E= 7.046874D-02  Symmetry=t2g
              MO Center=  1.9D-13,  2.4D-13,  4.1D-13, r^2= 1.5D+01
   Bfn.  Coefficient  Atom+Function         Bfn.  Coefficient  Atom+Function  
  ----- ------------  ---------------      ----- ------------  ---------------
   359      4.606585  10 C  s               575      4.606585  13 C  s         
    39     -3.517573   2 H  s               144     -3.517573   5 H  s         
   287     -2.706995   9 C  s               647     -2.706995  14 C  s         
     4      2.067052   1 H  s               179      2.067052   6 H  s         
    38      2.000996   2 H  s               143      2.000996   5 H  s         

 Vector   34  Occ=0.000000D+00  E= 7.046874D-02  Symmetry=t2g
              MO Center= -7.9D-13,  5.6D-12, -9.1D-13, r^2= 1.5D+01
   Bfn.  Coefficient  Atom+Function         Bfn.  Coefficient  Atom+Function  
  ----- ------------  ---------------      ----- ------------  ---------------
   431      4.066029  11 C  s               719      4.066029  15 C  s         
   287     -3.640157   9 C  s               647     -3.640157  14 C  s         
    74     -3.104806   3 H  s               214     -3.104806   7 H  s         
     4      2.779611   1 H  s               179      2.779611   6 H  s         
    73      1.766191   3 H  s               213      1.766191   7 H  s         

 Vector   35  Occ=0.000000D+00  E= 7.046874D-02  Symmetry=t2g
              MO Center=  3.8D-13, -1.5D-13, -1.3D-13, r^2= 1.5D+01
   Bfn.  Coefficient  Atom+Function         Bfn.  Coefficient  Atom+Function  
  ----- ------------  ---------------      ----- ------------  ---------------
   503      4.752690  12 C  s               791      4.752690  16 C  s         
   109     -3.629138   4 H  s               249     -3.629138   8 H  s         
   431     -2.144348  11 C  s               719     -2.144348  15 C  s         
   108      2.064461   4 H  s               248      2.064461   8 H  s         
   502     -1.661770  12 C  s               790     -1.661770  16 C  s         

 Vector   36  Occ=0.000000D+00  E= 7.965763D-02  Symmetry=t1u
              MO Center=  2.2D-13,  3.4D-14,  1.0D-13, r^2= 1.1D+01
   Bfn.  Coefficient  Atom+Function         Bfn.  Coefficient  Atom+Function  
  ----- ------------  ---------------      ----- ------------  ---------------
   109     -2.447302   4 H  s               249      2.447302   8 H  s         
   108      2.012295   4 H  s               248     -2.012295   8 H  s         
    39      1.862659   2 H  s               144     -1.862659   5 H  s         
    38     -1.531572   2 H  s               143      1.531572   5 H  s         
   503      1.503360  12 C  s               791     -1.503360  16 C  s         

 Vector   37  Occ=0.000000D+00  E= 7.965763D-02  Symmetry=t1u
              MO Center= -1.8D-12, -3.9D-12, -1.4D-12, r^2= 1.1D+01
   Bfn.  Coefficient  Atom+Function         Bfn.  Coefficient  Atom+Function  
  ----- ------------  ---------------      ----- ------------  ---------------
     4     -2.798792   1 H  s               179      2.798792   6 H  s         
     3      2.301308   1 H  s               178     -2.301308   6 H  s         
   287      1.719278   9 C  s               647     -1.719278  14 C  s         
   109      1.540358   4 H  s               249     -1.540358   8 H  s         
    74      1.260353   3 H  s               108     -1.266560   4 H  s         

 Vector   38  Occ=0.000000D+00  E= 7.965763D-02  Symmetry=t1u
              MO Center=  2.4D-12, -1.0D-12,  1.6D-12, r^2= 1.1D+01
   Bfn.  Coefficient  Atom+Function         Bfn.  Coefficient  Atom+Function  
  ----- ------------  ---------------      ----- ------------  ---------------
    74     -2.341211   3 H  s               214      2.341211   7 H  s         
    39      2.318690   2 H  s               144     -2.318690   5 H  s         
    73      1.925061   3 H  s               213     -1.925061   7 H  s         
    38     -1.906544   2 H  s               143      1.906544   5 H  s         
   431      1.438189  11 C  s               719     -1.438189  15 C  s         

 Vector   39  Occ=0.000000D+00  E= 1.020780D-01  Symmetry=a2u
              MO Center=  6.5D-13, -3.1D-13,  1.9D-12, r^2= 1.6D+01
   Bfn.  Coefficient  Atom+Function         Bfn.  Coefficient  Atom+Function  
  ----- ------------  ---------------      ----- ------------  ---------------
     4     -3.167989   1 H  s                39     -3.167989   2 H  s         
    74     -3.167989   3 H  s               109     -3.167989   4 H  s         
   144      3.167989   5 H  s               179      3.167989   6 H  s         
   214      3.167989   7 H  s               249      3.167989   8 H  s         
   287      1.838222   9 C  s               359      1.838222  10 C  s         

 Vector   40  Occ=0.000000D+00  E= 1.109008D-01  Symmetry=eg
              MO Center=  9.2D-14, -1.6D-13,  4.2D-14, r^2= 1.0D+01
   Bfn.  Coefficient  Atom+Function         Bfn.  Coefficient  Atom+Function  
  ----- ------------  ---------------      ----- ------------  ---------------
   299      0.373243   9 C  pz              371      0.373243  10 C  pz        
   443     -0.373243  11 C  pz              515     -0.373243  12 C  pz        
   587     -0.373243  13 C  pz              659     -0.373243  14 C  pz        
   731      0.373243  15 C  pz              803      0.373243  16 C  pz        
   296     -0.273928   9 C  pz              368     -0.273928  10 C  pz        

 Vector   41  Occ=0.000000D+00  E= 1.109008D-01  Symmetry=eg
              MO Center= -2.2D-16, -9.2D-14, -1.7D-14, r^2= 1.0D+01
   Bfn.  Coefficient  Atom+Function         Bfn.  Coefficient  Atom+Function  
  ----- ------------  ---------------      ----- ------------  ---------------
   297     -0.341990   9 C  px              369      0.341990  10 C  px        
   441      0.341990  11 C  px              513     -0.341990  12 C  px        
   585     -0.341990  13 C  px              657      0.341990  14 C  px        
   729     -0.341990  15 C  px              801      0.341990  16 C  px        
   298      0.304486   9 C  py              370     -0.304486  10 C  py        

 Vector   42  Occ=0.000000D+00  E= 1.638448D-01  Symmetry=t1g
              MO Center= -2.0D-13, -3.3D-14,  2.8D-14, r^2= 6.5D+00
   Bfn.  Coefficient  Atom+Function         Bfn.  Coefficient  Atom+Function  
  ----- ------------  ---------------      ----- ------------  ---------------
   297     -1.643636   9 C  px              513      1.643636  12 C  px        
   657      1.643636  14 C  px              801     -1.643636  16 C  px        
   298      1.145020   9 C  py              442     -1.145020  11 C  py        
   658     -1.145020  14 C  py              730      1.145020  15 C  py        
   370     -1.136123  10 C  py              514      1.136123  12 C  py        

 Vector   43  Occ=0.000000D+00  E= 1.638448D-01  Symmetry=t1g
              MO Center=  2.3D-14,  4.8D-13,  8.8D-13, r^2= 6.5D+00
   Bfn.  Coefficient  Atom+Function         Bfn.  Coefficient  Atom+Function  
  ----- ------------  ---------------      ----- ------------  ---------------
   443     -1.682578  11 C  pz              515      1.682578  12 C  pz        
   731      1.682578  15 C  pz              803     -1.682578  16 C  pz        
   370      1.296729  10 C  py              514     -1.296729  12 C  py        
   586     -1.296729  13 C  py              802      1.296729  16 C  py        
   369     -1.008555  10 C  px              441      1.008555  11 C  px        

 Vector   44  Occ=0.000000D+00  E= 1.638448D-01  Symmetry=t1g
              MO Center=  1.4D-13, -3.4D-13, -9.5D-13, r^2= 6.5D+00
   Bfn.  Coefficient  Atom+Function         Bfn.  Coefficient  Atom+Function  
  ----- ------------  ---------------      ----- ------------  ---------------
   299      1.666233   9 C  pz              371     -1.666233  10 C  pz        
   587      1.666233  13 C  pz              659     -1.666233  14 C  pz        
   369     -1.297842  10 C  px              441      1.297842  11 C  px        
   585      1.297842  13 C  px              729     -1.297842  15 C  px        
   298     -1.158713   9 C  py              442      1.158713  11 C  py        

 Vector   45  Occ=0.000000D+00  E= 1.707818D-01  Symmetry=t2u
              MO Center= -1.0D-13, -2.8D-13,  9.2D-13, r^2= 1.2D+01
   Bfn.  Coefficient  Atom+Function         Bfn.  Coefficient  Atom+Function  
  ----- ------------  ---------------      ----- ------------  ---------------
   299      0.855095   9 C  pz              371     -0.855095  10 C  pz        
   587     -0.855095  13 C  pz              659      0.855095  14 C  pz        
   298     -0.757663   9 C  py              442      0.757663  11 C  py        
   658     -0.757663  14 C  py              730      0.757663  15 C  py        
   370     -0.631878  10 C  py              514      0.631878  12 C  py        

 Vector   46  Occ=0.000000D+00  E= 1.707818D-01  Symmetry=t2u
              MO Center= -1.9D-12,  2.4D-13, -1.5D-13, r^2= 1.2D+01
   Bfn.  Coefficient  Atom+Function         Bfn.  Coefficient  Atom+Function  
  ----- ------------  ---------------      ----- ------------  ---------------
   369     -0.986142  10 C  px              441      0.986142  11 C  px        
   585     -0.986142  13 C  px              729      0.986142  15 C  px        
   370      0.682556  10 C  py              514     -0.682556  12 C  py        
   586      0.682556  13 C  py              802     -0.682556  16 C  py        
   443     -0.610280  11 C  pz              515      0.610280  12 C  pz        

 Vector   47  Occ=0.000000D+00  E= 1.707818D-01  Symmetry=t2u
              MO Center=  4.2D-13,  1.5D-13, -7.9D-14, r^2= 1.2D+01
   Bfn.  Coefficient  Atom+Function         Bfn.  Coefficient  Atom+Function  
  ----- ------------  ---------------      ----- ------------  ---------------
   297      1.004994   9 C  px              513     -1.004994  12 C  px        
   657      1.004994  14 C  px              801     -1.004994  16 C  px        
   443      0.605522  11 C  pz              515     -0.605522  12 C  pz        
   731      0.605522  15 C  pz              803     -0.605522  16 C  pz        
   298     -0.556242   9 C  py              442      0.556242  11 C  py        

 Vector   48  Occ=0.000000D+00  E= 1.722632D-01  Symmetry=a1g
              MO Center= -1.4D-13,  1.0D-12, -1.3D-14, r^2= 7.4D+00
   Bfn.  Coefficient  Atom+Function         Bfn.  Coefficient  Atom+Function  
  ----- ------------  ---------------      ----- ------------  ---------------
     3      1.710444   1 H  s                38      1.710444   2 H  s         
    73      1.710444   3 H  s               108      1.710444   4 H  s         
   143      1.710444   5 H  s               178      1.710444   6 H  s         
   213      1.710444   7 H  s               248      1.710444   8 H  s         
   287     -1.122682   9 C  s               359     -1.122682  10 C  s         

 Vector   49  Occ=0.000000D+00  E= 1.863379D-01  Symmetry=t2g
              MO Center= -2.2D-13,  7.8D-13,  4.5D-13, r^2= 1.4D+01
   Bfn.  Coefficient  Atom+Function         Bfn.  Coefficient  Atom+Function  
  ----- ------------  ---------------      ----- ------------  ---------------
   359      6.115646  10 C  s               575      6.115646  13 C  s         
   287     -5.950294   9 C  s               647     -5.950294  14 C  s         
    39      5.370898   2 H  s               144      5.370898   5 H  s         
     4     -5.225682   1 H  s               179     -5.225682   6 H  s         
   371     -3.758983  10 C  pz              587      3.758983  13 C  pz        

 Vector   50  Occ=0.000000D+00  E= 1.863379D-01  Symmetry=t2g
              MO Center= -3.6D-13, -5.4D-13, -6.0D-13, r^2= 1.4D+01
   Bfn.  Coefficient  Atom+Function         Bfn.  Coefficient  Atom+Function  
  ----- ------------  ---------------      ----- ------------  ---------------
   503      7.455161  12 C  s               791      7.455161  16 C  s         
   109      6.547291   4 H  s               249      6.547291   8 H  s         
   287     -4.423270   9 C  s               647     -4.423270  14 C  s         
   513     -4.141874  12 C  px              801      4.141874  16 C  px        
   515      3.962774  12 C  pz              803     -3.962774  16 C  pz        

 Vector   51  Occ=0.000000D+00  E= 1.863379D-01  Symmetry=t2g
              MO Center= -1.9D-11,  6.9D-12, -5.2D-12, r^2= 1.4D+01
   Bfn.  Coefficient  Atom+Function         Bfn.  Coefficient  Atom+Function  
  ----- ------------  ---------------      ----- ------------  ---------------
   431      6.898982  11 C  s               719      6.898982  15 C  s         
    74      6.058842   3 H  s               214      6.058842   7 H  s         
   359     -5.193673  10 C  s               575     -5.193673  13 C  s         
    39     -4.561201   2 H  s               144     -4.561201   5 H  s         
   441      4.004115  11 C  px              729     -4.004115  15 C  px        

 Vector   52  Occ=0.000000D+00  E= 2.012726D-01  Symmetry=t1u
              MO Center=  4.1D-12,  1.1D-13,  3.1D-13, r^2= 1.1D+01
   Bfn.  Coefficient  Atom+Function         Bfn.  Coefficient  Atom+Function  
  ----- ------------  ---------------      ----- ------------  ---------------
   287      7.195827   9 C  s               647     -7.195827  14 C  s         
   503     -6.477223  12 C  s               791      6.477223  16 C  s         
     4      4.449463   1 H  s               179     -4.449463   6 H  s         
   109     -4.005122   4 H  s               249      4.005122   8 H  s         
   298     -3.625344   9 C  py              658     -3.625344  14 C  py        

 Vector   53  Occ=0.000000D+00  E= 2.012726D-01  Symmetry=t1u
              MO Center=  9.0D-12, -9.5D-12,  7.6D-12, r^2= 1.1D+01
   Bfn.  Coefficient  Atom+Function         Bfn.  Coefficient  Atom+Function  
  ----- ------------  ---------------      ----- ------------  ---------------
   431      8.001049  11 C  s               719     -8.001049  15 C  s         
   287     -5.261190   9 C  s               647      5.261190  14 C  s         
    74      4.947363   3 H  s               214     -4.947363   7 H  s         
   441      3.860904  11 C  px              729      3.860904  15 C  px        
   503     -3.664988  12 C  s               791      3.664988  16 C  s         

 Vector   54  Occ=0.000000D+00  E= 2.012726D-01  Symmetry=t1u
              MO Center=  6.4D-12,  3.0D-12,  7.1D-13, r^2= 1.1D+01
   Bfn.  Coefficient  Atom+Function         Bfn.  Coefficient  Atom+Function  
  ----- ------------  ---------------      ----- ------------  ---------------
   359     -8.411176  10 C  s               575      8.411176  13 C  s         
    39     -5.200961   2 H  s               144      5.200961   5 H  s         
   503      4.909391  12 C  s               791     -4.909391  16 C  s         
   371      3.919885  10 C  pz              587      3.919885  13 C  pz        
   369     -3.534958  10 C  px              585     -3.534958  13 C  px        

 Vector   55  Occ=0.000000D+00  E= 2.477285D-01  Symmetry=a1g
              MO Center= -1.1D-12,  1.5D-12, -3.9D-12, r^2= 1.6D+01
   Bfn.  Coefficient  Atom+Function         Bfn.  Coefficient  Atom+Function  
  ----- ------------  ---------------      ----- ------------  ---------------
   287      6.396000   9 C  s               359      6.396000  10 C  s         
   431      6.396000  11 C  s               503      6.396000  12 C  s         
   575      6.396000  13 C  s               647      6.396000  14 C  s         
   719      6.396000  15 C  s               791      6.396000  16 C  s         
     4     -4.775111   1 H  s                39     -4.775111   2 H  s         

 Vector   56  Occ=0.000000D+00  E= 2.736562D-01  Symmetry=eu
              MO Center=  1.6D-12,  3.9D-12, -3.9D-13, r^2= 9.9D+00
   Bfn.  Coefficient  Atom+Function         Bfn.  Coefficient  Atom+Function  
  ----- ------------  ---------------      ----- ------------  ---------------
   298     -4.726996   9 C  py              370      4.726996  10 C  py        
   442     -4.726996  11 C  py              514      4.726996  12 C  py        
   586      4.726996  13 C  py              658     -4.726996  14 C  py        
   730     -4.726996  15 C  py              802      4.726996  16 C  py        
   297      3.413348   9 C  px              369     -3.413348  10 C  px        

 Vector   57  Occ=0.000000D+00  E= 2.736562D-01  Symmetry=eu
              MO Center= -2.3D-12,  1.0D-12, -2.6D-12, r^2= 9.9D+00
   Bfn.  Coefficient  Atom+Function         Bfn.  Coefficient  Atom+Function  
  ----- ------------  ---------------      ----- ------------  ---------------
   299     -4.699830   9 C  pz              371     -4.699830  10 C  pz        
   443      4.699830  11 C  pz              515      4.699830  12 C  pz        
   587     -4.699830  13 C  pz              659     -4.699830  14 C  pz        
   731      4.699830  15 C  pz              803      4.699830  16 C  pz        
   297      3.487567   9 C  px              369     -3.487567  10 C  px        

 Vector   58  Occ=0.000000D+00  E= 3.013109D-01  Symmetry=t1u
              MO Center= -2.9D-13,  3.4D-13, -1.4D-13, r^2= 1.4D+01
   Bfn.  Coefficient  Atom+Function         Bfn.  Coefficient  Atom+Function  
  ----- ------------  ---------------      ----- ------------  ---------------
     4      7.063742   1 H  s               179     -7.063742   6 H  s         
   287     -5.593810   9 C  s               647      5.593810  14 C  s         
     3     -4.981326   1 H  s               178      4.981326   6 H  s         
    74     -4.864176   3 H  s               214      4.864176   7 H  s         
   431      3.851964  11 C  s               719     -3.851964  15 C  s         

 Vector   59  Occ=0.000000D+00  E= 3.013109D-01  Symmetry=t1u
              MO Center=  1.9D-11, -2.7D-11, -9.4D-12, r^2= 1.4D+01
   Bfn.  Coefficient  Atom+Function         Bfn.  Coefficient  Atom+Function  
  ----- ------------  ---------------      ----- ------------  ---------------
   109      6.727374   4 H  s               249     -6.727374   8 H  s         
    39     -5.588535   2 H  s               144      5.588535   5 H  s         
   503     -5.327439  12 C  s               791      5.327439  16 C  s         
   108     -4.744121   4 H  s               248      4.744121   8 H  s         
   359      4.425587  10 C  s               575     -4.425587  13 C  s         

 Vector   60  Occ=0.000000D+00  E= 3.013109D-01  Symmetry=t1u
              MO Center= -7.7D-13, -4.2D-13, -3.0D-14, r^2= 1.4D+01
   Bfn.  Coefficient  Atom+Function         Bfn.  Coefficient  Atom+Function  
  ----- ------------  ---------------      ----- ------------  ---------------
    74      6.175909   3 H  s               214     -6.175909   7 H  s         
   431     -4.890731  11 C  s               719      4.890731  15 C  s         
    39     -4.703544   2 H  s               144      4.703544   5 H  s         
    73     -4.355230   3 H  s               213      4.355230   7 H  s         
   109     -4.184130   4 H  s               249      4.184130   8 H  s         

 Vector   61  Occ=0.000000D+00  E= 3.057777D-01  Symmetry=t1g
              MO Center= -1.7D-12, -1.8D-12, -6.7D-13, r^2= 1.0D+01
   Bfn.  Coefficient  Atom+Function         Bfn.  Coefficient  Atom+Function  
  ----- ------------  ---------------      ----- ------------  ---------------
   297      2.859911   9 C  px              513     -2.859911  12 C  px        
   657     -2.859911  14 C  px              801      2.859911  16 C  px        
   298     -2.675578   9 C  py              442      2.675578  11 C  py        
   658      2.675578  14 C  py              730     -2.675578  15 C  py        
   370      2.351936  10 C  py              514     -2.351936  12 C  py        

 Vector   62  Occ=0.000000D+00  E= 3.057777D-01  Symmetry=t1g
              MO Center=  3.5D-13,  2.3D-14,  6.6D-13, r^2= 1.0D+01
   Bfn.  Coefficient  Atom+Function         Bfn.  Coefficient  Atom+Function  
  ----- ------------  ---------------      ----- ------------  ---------------
   299     -3.158509   9 C  pz              371      3.158509  10 C  pz        
   587     -3.158509  13 C  pz              659      3.158509  14 C  pz        
   369      2.699311  10 C  px              441     -2.699311  11 C  px        
   585     -2.699311  13 C  px              729      2.699311  15 C  px        
   297      2.130054   9 C  px              513     -2.130054  12 C  px        

 Vector   63  Occ=0.000000D+00  E= 3.057777D-01  Symmetry=t1g
              MO Center= -1.6D-13, -3.8D-13,  1.1D-13, r^2= 1.0D+01
   Bfn.  Coefficient  Atom+Function         Bfn.  Coefficient  Atom+Function  
  ----- ------------  ---------------      ----- ------------  ---------------
   443      3.143273  11 C  pz              515     -3.143273  12 C  pz        
   731     -3.143273  15 C  pz              803      3.143273  16 C  pz        
   370     -2.680951  10 C  py              514      2.680951  12 C  py        
   586      2.680951  13 C  py              802     -2.680951  16 C  py        
   298     -2.171067   9 C  py              442      2.171067  11 C  py        

 Vector   64  Occ=0.000000D+00  E= 3.096415D-01  Symmetry=t2g
              MO Center= -1.5D-11, -3.7D-12,  6.8D-12, r^2= 1.2D+01
   Bfn.  Coefficient  Atom+Function         Bfn.  Coefficient  Atom+Function  
  ----- ------------  ---------------      ----- ------------  ---------------
   287      8.219585   9 C  s               647      8.219585  14 C  s         
   359     -7.946527  10 C  s               575     -7.946527  13 C  s         
   503     -4.482893  12 C  s               791     -4.482893  16 C  s         
   431      4.209835  11 C  s               719      4.209835  15 C  s         
     4     -4.062839   1 H  s               179     -4.062839   6 H  s         

 Vector   65  Occ=0.000000D+00  E= 3.096415D-01  Symmetry=t2g
              MO Center= -7.7D-12,  2.7D-11,  5.9D-12, r^2= 1.2D+01
   Bfn.  Coefficient  Atom+Function         Bfn.  Coefficient  Atom+Function  
  ----- ------------  ---------------      ----- ------------  ---------------
   503     10.185353  12 C  s               791     10.185353  16 C  s         
   359     -7.058708  10 C  s               575     -7.058708  13 C  s         
   109     -5.034494   4 H  s               249     -5.034494   8 H  s         
   502     -3.892245  12 C  s               790     -3.892245  16 C  s         
   431     -3.807559  11 C  s               719     -3.807559  15 C  s         

 Vector   66  Occ=0.000000D+00  E= 3.096415D-01  Symmetry=t2g
              MO Center=  1.6D-11, -3.5D-12,  2.5D-11, r^2= 1.2D+01
   Bfn.  Coefficient  Atom+Function         Bfn.  Coefficient  Atom+Function  
  ----- ------------  ---------------      ----- ------------  ---------------
   431      9.704417  11 C  s               719      9.704417  15 C  s         
   287     -7.640073   9 C  s               647     -7.640073  14 C  s         
    74     -4.796774   3 H  s               214     -4.796774   7 H  s         
     4      3.776394   1 H  s               179      3.776394   6 H  s         
   430     -3.708459  11 C  s               718     -3.708459  15 C  s         

 Vector   67  Occ=0.000000D+00  E= 3.184134D-01  Symmetry=a2u
              MO Center= -1.4D-11,  5.0D-12, -2.7D-11, r^2= 1.4D+01
   Bfn.  Coefficient  Atom+Function         Bfn.  Coefficient  Atom+Function  
  ----- ------------  ---------------      ----- ------------  ---------------
     4      5.361693   1 H  s                39      5.361693   2 H  s         
    74      5.361693   3 H  s               109      5.361693   4 H  s         
   144     -5.361693   5 H  s               179     -5.361693   6 H  s         
   214     -5.361693   7 H  s               249     -5.361693   8 H  s         
     3     -3.891358   1 H  s                38     -3.891358   2 H  s         

 Vector   68  Occ=0.000000D+00  E= 3.311862D-01  Symmetry=t1u
              MO Center= -8.3D-13,  1.1D-12,  2.0D-12, r^2= 9.9D+00
   Bfn.  Coefficient  Atom+Function         Bfn.  Coefficient  Atom+Function  
  ----- ------------  ---------------      ----- ------------  ---------------
   108      3.593261   4 H  s               248     -3.593261   8 H  s         
   109      3.355896   4 H  s               249     -3.355896   8 H  s         
   503     -3.326786  12 C  s               791      3.326786  16 C  s         
   515      3.039306  12 C  pz              803      3.039306  16 C  pz        
   514      2.947272  12 C  py              802      2.947272  16 C  py        

[...]
   49 Bend                     9    16    10                90.00000    0.00000
   50 Bend                     9    16    11                90.00000    0.00000
   51 Bend                    10    14    11                90.00000    0.00000
   52 Bend                    10    14    12                90.00000    0.00000
   53 Bend                    10    15    12                90.00000    0.00000
   54 Bend                    10    16    11                90.00000    0.00000
   55 Bend                    11    13    12                90.00000    0.00000
   56 Bend                    11    14    12                90.00000    0.00000
   57 Bend                    13     9    15                90.00000    0.00000
   58 Bend                    13     9    16                90.00000    0.00000
   59 Bend                    13    11    14                90.00000    0.00000
   60 Bend                    13    11    16                90.00000    0.00000
   61 Bend                    13    12    14                90.00000    0.00000
   62 Bend                    13    12    15                90.00000    0.00000
   63 Bend                    14    10    15                90.00000    0.00000
   64 Bend                    14    10    16                90.00000    0.00000
   65 Bend                    14    11    16                90.00000    0.00000
   66 Bend                    14    12    15                90.00000    0.00000
   67 Bend                    15     9    16                90.00000    0.00000
   68 Bend                    15    10    16                90.00000    0.00000
   69 Torsion                  1     9    13     5           0.00000    0.00000
   70 Torsion                  1     9    13    11        -135.00000   -0.00000
   71 Torsion                  1     9    13    12         135.00000    0.00000
   72 Torsion                  1     9    15     7           0.00000    0.00000
   73 Torsion                  1     9    15    10         135.00000    0.00000
   74 Torsion                  1     9    15    12        -135.00000   -0.00000
   75 Torsion                  1     9    16     8           0.00000    0.00000
   76 Torsion                  1     9    16    10        -135.00000   -0.00000
   77 Torsion                  1     9    16    11         135.00000    0.00000
   78 Torsion                  2    10    14     6           0.00000    0.00000
   79 Torsion                  2    10    14    11         135.00000    0.00000
   80 Torsion                  2    10    14    12        -135.00000   -0.00000
   81 Torsion                  2    10    15     7           0.00000    0.00000
   82 Torsion                  2    10    15     9        -135.00000   -0.00000
   83 Torsion                  2    10    15    12         135.00000    0.00000
   84 Torsion                  2    10    16     8           0.00000    0.00000
   85 Torsion                  2    10    16     9         135.00000    0.00000
   86 Torsion                  2    10    16    11        -135.00000   -0.00000
   87 Torsion                  3    11    13     5           0.00000    0.00000
   88 Torsion                  3    11    13     9         135.00000    0.00000
   89 Torsion                  3    11    13    12        -135.00000   -0.00000
   90 Torsion                  3    11    14     6           0.00000    0.00000
   91 Torsion                  3    11    14    10        -135.00000   -0.00000
   92 Torsion                  3    11    14    12         135.00000    0.00000
   93 Torsion                  3    11    16     8           0.00000    0.00000
   94 Torsion                  3    11    16     9        -135.00000   -0.00000
   95 Torsion                  3    11    16    10         135.00000    0.00000
   96 Torsion                  4    12    13     5           0.00000    0.00000
   97 Torsion                  4    12    13     9        -135.00000   -0.00000
   98 Torsion                  4    12    13    11         135.00000    0.00000
   99 Torsion                  4    12    14     6           0.00000    0.00000
  100 Torsion                  4    12    14    10         135.00000    0.00000
  101 Torsion                  4    12    14    11        -135.00000   -0.00000
  102 Torsion                  4    12    15     7           0.00000    0.00000
  103 Torsion                  4    12    15     9         135.00000    0.00000
  104 Torsion                  4    12    15    10        -135.00000   -0.00000
  105 Torsion                  5    13     9    15        -135.00000   -0.00000
  106 Torsion                  5    13     9    16         135.00000    0.00000
  107 Torsion                  5    13    11    14         135.00000    0.00000
  108 Torsion                  5    13    11    16        -135.00000   -0.00000
  109 Torsion                  5    13    12    14        -135.00000   -0.00000
  110 Torsion                  5    13    12    15         135.00000    0.00000
  111 Torsion                  6    14    10    15         135.00000    0.00000
  112 Torsion                  6    14    10    16        -135.00000   -0.00000
  113 Torsion                  6    14    11    13        -135.00000   -0.00000
  114 Torsion                  6    14    11    16         135.00000    0.00000
  115 Torsion                  6    14    12    13         135.00000    0.00000
  116 Torsion                  6    14    12    15        -135.00000   -0.00000
  117 Torsion                  7    15     9    13         135.00000    0.00000
  118 Torsion                  7    15     9    16        -135.00000   -0.00000
  119 Torsion                  7    15    10    14        -135.00000   -0.00000
  120 Torsion                  7    15    10    16         135.00000    0.00000
  121 Torsion                  7    15    12    13        -135.00000   -0.00000
  122 Torsion                  7    15    12    14         135.00000    0.00000
  123 Torsion                  8    16     9    13        -135.00000   -0.00000
  124 Torsion                  8    16     9    15         135.00000    0.00000
  125 Torsion                  8    16    10    14         135.00000    0.00000
  126 Torsion                  8    16    10    15        -135.00000   -0.00000
  127 Torsion                  8    16    11    13         135.00000    0.00000
  128 Torsion                  8    16    11    14        -135.00000   -0.00000
  129 Torsion                  9    13    11    14         -90.00000    0.00000
  130 Torsion                  9    13    11    16           0.00000    0.00000
  131 Torsion                  9    13    12    14          90.00000    0.00000
  132 Torsion                  9    13    12    15           0.00000    0.00000
  133 Torsion                  9    15    10    14          90.00000    0.00000
  134 Torsion                  9    15    10    16           0.00000    0.00000
  135 Torsion                  9    15    12    13           0.00000    0.00000
  136 Torsion                  9    15    12    14         -90.00000    0.00000
  137 Torsion                  9    16    10    14         -90.00000    0.00000
  138 Torsion                  9    16    10    15           0.00000    0.00000
  139 Torsion                  9    16    11    13           0.00000    0.00000
  140 Torsion                  9    16    11    14          90.00000    0.00000
  141 Torsion                 10    14    11    13          90.00000    0.00000
  142 Torsion                 10    14    11    16           0.00000    0.00000
  143 Torsion                 10    14    12    13         -90.00000    0.00000
  144 Torsion                 10    14    12    15           0.00000    0.00000
  145 Torsion                 10    15     9    13         -90.00000    0.00000
  146 Torsion                 10    15     9    16           0.00000    0.00000
  147 Torsion                 10    15    12    13          90.00000    0.00000
  148 Torsion                 10    15    12    14           0.00000    0.00000
  149 Torsion                 10    16     9    13          90.00000    0.00000
  150 Torsion                 10    16     9    15           0.00000    0.00000
  151 Torsion                 10    16    11    13         -90.00000    0.00000
  152 Torsion                 10    16    11    14           0.00000    0.00000
  153 Torsion                 11    13     9    15          90.00000    0.00000
  154 Torsion                 11    13     9    16           0.00000    0.00000
  155 Torsion                 11    13    12    14           0.00000    0.00000
  156 Torsion                 11    13    12    15         -90.00000    0.00000
  157 Torsion                 11    14    10    15         -90.00000    0.00000
  158 Torsion                 11    14    10    16           0.00000    0.00000
  159 Torsion                 11    14    12    13           0.00000    0.00000
  160 Torsion                 11    14    12    15          90.00000    0.00000
  161 Torsion                 11    16     9    13           0.00000    0.00000
  162 Torsion                 11    16     9    15         -90.00000    0.00000
  163 Torsion                 11    16    10    14           0.00000    0.00000
  164 Torsion                 11    16    10    15          90.00000    0.00000
  165 Torsion                 12    13     9    15           0.00000    0.00000
  166 Torsion                 12    13     9    16         -90.00000    0.00000
  167 Torsion                 12    13    11    14           0.00000    0.00000
  168 Torsion                 12    13    11    16          90.00000    0.00000
  169 Torsion                 12    14    10    15           0.00000    0.00000
  170 Torsion                 12    14    10    16          90.00000    0.00000
  171 Torsion                 12    14    11    13           0.00000    0.00000
  172 Torsion                 12    14    11    16         -90.00000    0.00000
  173 Torsion                 12    15     9    13           0.00000    0.00000
  174 Torsion                 12    15     9    16          90.00000    0.00000
  175 Torsion                 12    15    10    14           0.00000    0.00000
  176 Torsion                 12    15    10    16         -90.00000    0.00000

 ==============================================================================
                                internuclear distances
 ------------------------------------------------------------------------------
       center one      |      center two      | atomic units |  angstroms
 ------------------------------------------------------------------------------
    9 C                |   1 H                |     2.05195  |     1.08584
   10 C                |   2 H                |     2.05195  |     1.08584
   11 C                |   3 H                |     2.05195  |     1.08584
   12 C                |   4 H                |     2.05195  |     1.08584
   13 C                |   5 H                |     2.05195  |     1.08584
   13 C                |   9 C                |     2.96203  |     1.56744
   13 C                |  11 C                |     2.96203  |     1.56744
   13 C                |  12 C                |     2.96203  |     1.56744
   14 C                |   6 H                |     2.05195  |     1.08584
   14 C                |  10 C                |     2.96203  |     1.56744
   14 C                |  11 C                |     2.96203  |     1.56744
   14 C                |  12 C                |     2.96203  |     1.56744
   15 C                |   7 H                |     2.05195  |     1.08584
   15 C                |   9 C                |     2.96203  |     1.56744
   15 C                |  10 C                |     2.96203  |     1.56744
   15 C                |  12 C                |     2.96203  |     1.56744
   16 C                |   8 H                |     2.05195  |     1.08584
   16 C                |   9 C                |     2.96203  |     1.56744
   16 C                |  10 C                |     2.96203  |     1.56744
   16 C                |  11 C                |     2.96203  |     1.56744
 ------------------------------------------------------------------------------
                         number of included internuclear distances:         20
 ==============================================================================



 ==============================================================================
                                 internuclear angles
 ------------------------------------------------------------------------------
        center 1       |       center 2       |       center 3       |  degrees
 ------------------------------------------------------------------------------
    1 H                |   9 C                |  13 C                |   125.26
    1 H                |   9 C                |  15 C                |   125.26
    1 H                |   9 C                |  16 C                |   125.26
   13 C                |   9 C                |  15 C                |    90.00
   13 C                |   9 C                |  16 C                |    90.00
   15 C                |   9 C                |  16 C                |    90.00
    2 H                |  10 C                |  14 C                |   125.26
    2 H                |  10 C                |  15 C                |   125.26
    2 H                |  10 C                |  16 C                |   125.26
   14 C                |  10 C                |  15 C                |    90.00
   14 C                |  10 C                |  16 C                |    90.00
   15 C                |  10 C                |  16 C                |    90.00
    3 H                |  11 C                |  13 C                |   125.26
    3 H                |  11 C                |  14 C                |   125.26
    3 H                |  11 C                |  16 C                |   125.26
   13 C                |  11 C                |  14 C                |    90.00
   13 C                |  11 C                |  16 C                |    90.00
   14 C                |  11 C                |  16 C                |    90.00
    4 H                |  12 C                |  13 C                |   125.26
    4 H                |  12 C                |  14 C                |   125.26
    4 H                |  12 C                |  15 C                |   125.26
   13 C                |  12 C                |  14 C                |    90.00
   13 C                |  12 C                |  15 C                |    90.00
   14 C                |  12 C                |  15 C                |    90.00
    5 H                |  13 C                |   9 C                |   125.26
    5 H                |  13 C                |  11 C                |   125.26
    5 H                |  13 C                |  12 C                |   125.26
    9 C                |  13 C                |  11 C                |    90.00
    9 C                |  13 C                |  12 C                |    90.00
   11 C                |  13 C                |  12 C                |    90.00
    6 H                |  14 C                |  10 C                |   125.26
    6 H                |  14 C                |  11 C                |   125.26
    6 H                |  14 C                |  12 C                |   125.26
   10 C                |  14 C                |  11 C                |    90.00
   10 C                |  14 C                |  12 C                |    90.00
   11 C                |  14 C                |  12 C                |    90.00
    7 H                |  15 C                |   9 C                |   125.26
    7 H                |  15 C                |  10 C                |   125.26
    7 H                |  15 C                |  12 C                |   125.26
    9 C                |  15 C                |  10 C                |    90.00
    9 C                |  15 C                |  12 C                |    90.00
   10 C                |  15 C                |  12 C                |    90.00
    8 H                |  16 C                |   9 C                |   125.26
    8 H                |  16 C                |  10 C                |   125.26
    8 H                |  16 C                |  11 C                |   125.26
    9 C                |  16 C                |  10 C                |    90.00
    9 C                |  16 C                |  11 C                |    90.00
   10 C                |  16 C                |  11 C                |    90.00
 ------------------------------------------------------------------------------
                            number of included internuclear angles:         48
 ==============================================================================




 Task  times  cpu:     3985.4s     wall:     8216.9s


                                NWChem Input Module
                                -------------------


 Summary of allocated global arrays
-----------------------------------
  No active global arrays



                         GA Statistics for process    0
                         ------------------------------

       create   destroy   get      put      acc     scatter   gather  read&inc
calls:  538      538     1.41e+06 1.62e+05 1.93e+05    0        0        0     
number of processes/call 1.02e+00 1.02e+00 1.00e+00 0.00e+00 0.00e+00
bytes total:             1.09e+10 2.59e+09 6.98e+09 0.00e+00 0.00e+00 0.00e+00
bytes remote:            1.35e+09 3.63e+08 9.09e+08 0.00e+00 0.00e+00 0.00e+00
Max memory consumed for GA by this process: 199112448 bytes

MA_summarize_allocated_blocks: starting scan ...
MA_summarize_allocated_blocks: scan completed: 0 heap blocks, 0 stack blocks
MA usage statistics:

	allocation statistics:
					      heap	     stack
					      ----	     -----
	current number of blocks	         0	         0
	maximum number of blocks	        25	        52
	current total bytes		         0	         0
	maximum total bytes		   2159888	  74753224
	maximum total K-bytes		      2160	     74754
	maximum total M-bytes		         3	        75


                                     CITATION
                                     --------
                Please cite the following reference when publishing
                           results obtained with NWChem:

                 M. Valiev, E.J. Bylaska, N. Govind, K. Kowalski,
              T.P. Straatsma, H.J.J. van Dam, D. Wang, J. Nieplocha,
                        E. Apra, T.L. Windus, W.A. de Jong
                 "NWChem: a comprehensive and scalable open-source
                  solution for large scale molecular simulations"
                      Comput. Phys. Commun. 181, 1477 (2010)
                           doi:10.1016/j.cpc.2010.04.018

                              AUTHORS & CONTRIBUTORS
                              ----------------------
      E. J. Bylaska, W. A. de Jong, N. Govind, K. Kowalski, T. P. Straatsma,
     M. Valiev, H. J. J. van Dam, D. Wang, E. Apra, T. L. Windus, J. Hammond,
    J. Autschbach, F. Aquino, J. Mullin, P. Nichols, S. Hirata, M. T. Hackler,
   Y. Zhao, P.-D. Fan, R. J. Harrison, M. Dupuis, D. M. A. Smith, K. Glaesemann,
    J. Nieplocha, V. Tipparaju, M. Krishnan, A. Vazquez-Mayagoitia, L. Jensen,
      M. Swart, Q. Wu, T. Van Voorhis, A. A. Auer, M. Nooijen, L. D. Crosby,
        E. Brown, G. Cisneros, G. I. Fann, H. Fruchtl, J. Garza, K. Hirao,
        R. Kendall, J. A. Nichols, K. Tsemekhman, K. Wolinski, J. Anchell,
       D. Bernholdt, P. Borowski, T. Clark, D. Clerc, H. Dachsel, M. Deegan,
        K. Dyall, D. Elwood, E. Glendening, M. Gutowski, A. Hess, J. Jaffe,
        B. Johnson, J. Ju, R. Kobayashi, R. Kutteh, Z. Lin, R. Littlefield,
    X. Long, B. Meng, T. Nakajima, S. Niu, L. Pollack, M. Rosing, G. Sandrone,
       M. Stave, H. Taylor, G. Thomas, J. H. van Lenthe, A. Wong, Z. Zhang.

 Total times  cpu:     3985.5s     wall:     8218.7s
