 argument  1 = triplet.nw
                                         
                                         


              Northwest Computational Chemistry Package (NWChem) 6.8
              ------------------------------------------------------


                    Environmental Molecular Sciences Laboratory
                       Pacific Northwest National Laboratory
                                Richland, WA 99352

                              Copyright (c) 1994-2017
                       Pacific Northwest National Laboratory
                            Battelle Memorial Institute

             NWChem is an open-source computational chemistry package
                        distributed under the terms of the
                      Educational Community License (ECL) 2.0
             A copy of the license is included with this distribution
                              in the LICENSE.TXT file

                                  ACKNOWLEDGMENT
                                  --------------

            This software and its documentation were developed at the
            EMSL at Pacific Northwest National Laboratory, a multiprogram
            national laboratory, operated for the U.S. Department of Energy
            by Battelle under Contract Number DE-AC05-76RL01830. Support
            for this work was provided by the Department of Energy Office
            of Biological and Environmental Research, Office of Basic
            Energy Sciences, and the Office of Advanced Scientific Computing.


           Job information
           ---------------

    hostname        = vladimir-Kubuntu-16
    program         = nwchem
    date            = Sun Dec 22 08:11:47 2019

    compiled        = Wed_Aug_15_19:14:19_2018
    source          = /home/edo/debichem-team/nwchem/nwchem-6.8.1
    nwchem branch   = 6.8.1
    nwchem revision = v6.8-133-ge032219
    ga revision     = 5.6.5
    use scalapack   = T
    input           = triplet.nw
    prefix          = triplet.
    data base       = ./triplet.db
    status          = startup
    nproc           =        1
    time left       =     -1s



           Memory information
           ------------------

    heap     =   13107194 doubles =    100.0 Mbytes
    stack    =   13107199 doubles =    100.0 Mbytes
    global   =   26214400 doubles =    200.0 Mbytes (distinct from heap & stack)
    total    =   52428793 doubles =    400.0 Mbytes
    verify   = yes
    hardfail = no 


           Directory information
           ---------------------

  0 permanent = .
  0 scratch   = .




                                NWChem Input Module
                                -------------------


               cubane T-biradical MP2/cc-pVDZ geometry optimization
               ----------------------------------------------------

 Scaling coordinates for geometry "geometry" by  1.889725989
 (inverse scale =  0.529177249)

 Turning off AUTOSYM since
 SYMMETRY directive was detected!


          ------
          auto-z
          ------


                             Geometry "geometry" -> ""
                             -------------------------

 Output coordinates in angstroms (scale by  1.889725989 to convert to a.u.)

  No.       Tag          Charge          X              Y              Z
 ---- ---------------- ---------- -------------- -------------- --------------
    1 H                    1.0000     2.06764061     1.28283203    -0.00592891
    2 C                    6.0000     1.08129134     0.80023067    -0.08243644
    3 H                    1.0000     2.06764061    -1.28283203    -0.00592891
    4 C                    6.0000     1.08129134    -0.80023067    -0.08243644
    5 H                    1.0000     0.00000000    -2.35975410    -1.43482569
    6 C                    6.0000     0.00000000    -1.35361119    -0.99836162
    7 H                    1.0000     0.00000000     2.35975410    -1.43482569
    8 C                    6.0000     0.00000000     1.35361119    -0.99836162
    9 H                    1.0000     0.00000000    -1.47004282     1.93809275
   10 C                    6.0000     0.00000000    -0.77970203     1.08133294
   11 H                    1.0000     0.00000000     1.47004282     1.93809275
   12 C                    6.0000     0.00000000     0.77970203     1.08133294
   13 H                    1.0000    -2.06764061     1.28283203    -0.00592891
   14 C                    6.0000    -1.08129134     0.80023067    -0.08243644
   15 H                    1.0000    -2.06764061    -1.28283203    -0.00592891
   16 C                    6.0000    -1.08129134    -0.80023067    -0.08243644

      Atomic Mass 
      ----------- 

      H                  1.007825
      C                 12.000000


 Effective nuclear repulsion energy (a.u.)     355.6481113583

            Nuclear Dipole moment (a.u.) 
            ----------------------------
        X                 Y               Z
 ---------------- ---------------- ----------------
     0.0000000000     0.0000000000    -0.0000000000

      Symmetry information
      --------------------

 Group name             C2v       
 Group number             16
 Group order               4
 No. of unique centers     6

      Symmetry unique atoms

     1    2    5    6    9   10



                                Z-matrix (autoz)
                                -------- 

 Units are Angstrom for bonds and degrees for angles

      Type          Name      I     J     K     L     M      Value
      ----------- --------  ----- ----- ----- ----- ----- ----------
    1 Stretch                  1     2                       1.10075
    2 Stretch                  2     4                       1.60046
    3 Stretch                  2     8                       1.52130
    4 Stretch                  2    12                       1.58870
    5 Stretch                  3     4                       1.10075
    6 Stretch                  4     6                       1.52130
    7 Stretch                  4    10                       1.58870
    8 Stretch                  5     6                       1.09673
    9 Stretch                  6    16                       1.52130
   10 Stretch                  7     8                       1.09673
   11 Stretch                  8    14                       1.52130
   12 Stretch                  9    10                       1.10028
   13 Stretch                 10    12                       1.55940
   14 Stretch                 10    16                       1.58870
   15 Stretch                 11    12                       1.10028
   16 Stretch                 12    14                       1.58870
   17 Stretch                 13    14                       1.10075
   18 Stretch                 14    16                       1.60046
   19 Stretch                 15    16                       1.10075
   20 Bend                     1     2     4               116.00382
   21 Bend                     1     2     8               121.28310
   22 Bend                     1     2    12               124.37661
   23 Bend                     2     4     3               116.00382
   24 Bend                     2     4     6               111.33105
   25 Bend                     2     4    10                89.25962
   26 Bend                     2     8     7               124.98162
   27 Bend                     2     8    14                90.59522
   28 Bend                     2    12    10                90.74038
   29 Bend                     2    12    11               124.21473
   30 Bend                     2    12    14                85.78319
   31 Bend                     3     4     6               121.28310
   32 Bend                     3     4    10               124.37661
   33 Bend                     4     2     8               111.33105
   34 Bend                     4     2    12                89.25962
   35 Bend                     4     6     5               124.98162
   36 Bend                     4     6    16                90.59522
   37 Bend                     4    10     9               124.21473
   38 Bend                     4    10    12                90.74038
   39 Bend                     4    10    16                85.78319
   40 Bend                     5     6    16               124.98162
   41 Bend                     6     4    10                87.82073
   42 Bend                     6    16    10                87.82073
   43 Bend                     6    16    14               111.33105
   44 Bend                     6    16    15               121.28310
   45 Bend                     7     8    14               124.98162
   46 Bend                     8     2    12                87.82073
   47 Bend                     8    14    12                87.82073
   48 Bend                     8    14    13               121.28310
   49 Bend                     8    14    16               111.33105
   50 Bend                     9    10    12               128.86040
   51 Bend                     9    10    16               124.21473
   52 Bend                    10    12    11               128.86040
   53 Bend                    10    12    14                90.74038
   54 Bend                    10    16    14                89.25962
   55 Bend                    10    16    15               124.37661
   56 Bend                    11    12    14               124.21473
   57 Bend                    12    10    16                90.74038
   58 Bend                    12    14    13               124.37661
   59 Bend                    12    14    16                89.25962
   60 Bend                    13    14    16               116.00382
   61 Bend                    14    16    15               116.00382
   62 Torsion                  1     2     4     3           0.00000
   63 Torsion                  1     2     4     6        -144.16854
   64 Torsion                  1     2     4    10         128.46069
   65 Torsion                  1     2     8     7         -16.24482
   66 Torsion                  1     2     8    14        -151.23913
   67 Torsion                  1     2    12    10        -121.49430
   68 Torsion                  1     2    12    11          18.64322
   69 Torsion                  1     2    12    14         147.81784
   70 Torsion                  2     4     6     5         158.24585
   71 Torsion                  2     4     6    16         -66.75983
   72 Torsion                  2     4    10     9        -140.13752
   73 Torsion                  2     4    10    12           0.00000
   74 Torsion                  2     4    10    16          90.68785
   75 Torsion                  2     8    14    12          21.59313
   76 Torsion                  2     8    14    13         151.23913
   77 Torsion                  2     8    14    16         -66.75983
   78 Torsion                  2    12    10     4           0.00000
   79 Torsion                  2    12    10     9         137.10396
   80 Torsion                  2    12    10    16         -85.79208
   81 Torsion                  2    12    14     8         -20.69152
   82 Torsion                  2    12    14    13        -147.81784
   83 Torsion                  2    12    14    16          90.68785
   84 Torsion                  3     4     2     8         144.16854
   85 Torsion                  3     4     2    12        -128.46069
   86 Torsion                  3     4     6     5          16.24482
   87 Torsion                  3     4     6    16         151.23913
   88 Torsion                  3     4    10     9         -18.64322
   89 Torsion                  3     4    10    12         121.49430
   90 Torsion                  3     4    10    16        -147.81784
   91 Torsion                  4     2     8     7        -158.24585
   92 Torsion                  4     2     8    14          66.75983
   93 Torsion                  4     2    12    10           0.00000
   94 Torsion                  4     2    12    11         140.13752
   95 Torsion                  4     2    12    14         -90.68785
   96 Torsion                  4     6    16    10         -21.59313
   97 Torsion                  4     6    16    14          66.75983
   98 Torsion                  4     6    16    15        -151.23913
   99 Torsion                  4    10    12    11        -137.10396
  100 Torsion                  4    10    12    14          85.79208
  101 Torsion                  4    10    16     6          20.69152
  102 Torsion                  4    10    16    14         -90.68785
  103 Torsion                  4    10    16    15         147.81784
  104 Torsion                  5     6     4    10        -113.40119
  105 Torsion                  5     6    16    10         113.40119
  106 Torsion                  5     6    16    14        -158.24585
  107 Torsion                  5     6    16    15         -16.24482
  108 Torsion                  6     4     2     8           0.00000
  109 Torsion                  6     4     2    12          87.37076
  110 Torsion                  6     4    10     9         108.48311
  111 Torsion                  6     4    10    12        -111.37937
  112 Torsion                  6     4    10    16         -20.69152
  113 Torsion                  6    16    10     9        -108.48311
  114 Torsion                  6    16    10    12         111.37937
  115 Torsion                  6    16    14     8           0.00000
  116 Torsion                  6    16    14    12         -87.37076
  117 Torsion                  6    16    14    13         144.16854
  118 Torsion                  7     8     2    12         113.40119
  119 Torsion                  7     8    14    12        -113.40119
  120 Torsion                  7     8    14    13          16.24482
  121 Torsion                  7     8    14    16         158.24585
  122 Torsion                  8     2     4    10         -87.37076
  123 Torsion                  8     2    12    10         111.37937
  124 Torsion                  8     2    12    11        -108.48311
  125 Torsion                  8     2    12    14          20.69152
  126 Torsion                  8    14    12    10        -111.37937
  127 Torsion                  8    14    12    11         108.48311
  128 Torsion                  8    14    16    10          87.37076
  129 Torsion                  8    14    16    15        -144.16854
  130 Torsion                  9    10    12    11           0.00000
  131 Torsion                  9    10    12    14        -137.10396
  132 Torsion                  9    10    16    14         140.13752
  133 Torsion                  9    10    16    15          18.64322
  134 Torsion                 10     4     2    12           0.00000
  135 Torsion                 10     4     6    16          21.59313
  136 Torsion                 10    12    14    13         121.49430
  137 Torsion                 10    12    14    16           0.00000
  138 Torsion                 10    16    14    12           0.00000
  139 Torsion                 10    16    14    13        -128.46069
  140 Torsion                 11    12    10    16         137.10396
  141 Torsion                 11    12    14    13         -18.64322
  142 Torsion                 11    12    14    16        -140.13752
  143 Torsion                 12     2     8    14         -21.59313
  144 Torsion                 12    10    16    14          -0.00000
  145 Torsion                 12    10    16    15        -121.49430
  146 Torsion                 12    14    16    15         128.46069
  147 Torsion                 13    14    16    15           0.00000
  148 Torsion                 14    12    10    16           0.00000


            XYZ format geometry
            -------------------
    16
 geometry
 H                     2.06764061     1.28283203    -0.00592891
 C                     1.08129134     0.80023067    -0.08243644
 H                     2.06764061    -1.28283203    -0.00592891
 C                     1.08129134    -0.80023067    -0.08243644
 H                     0.00000000    -2.35975410    -1.43482569
 C                     0.00000000    -1.35361119    -0.99836162
 H                     0.00000000     2.35975410    -1.43482569
 C                     0.00000000     1.35361119    -0.99836162
 H                     0.00000000    -1.47004282     1.93809275
 C                     0.00000000    -0.77970203     1.08133294
 H                     0.00000000     1.47004282     1.93809275
 C                     0.00000000     0.77970203     1.08133294
 H                    -2.06764061     1.28283203    -0.00592891
 C                    -1.08129134     0.80023067    -0.08243644
 H                    -2.06764061    -1.28283203    -0.00592891
 C                    -1.08129134    -0.80023067    -0.08243644

 ==============================================================================
                                internuclear distances
 ------------------------------------------------------------------------------
       center one      |      center two      | atomic units |  angstroms
 ------------------------------------------------------------------------------
    2 C                |   1 H                |     2.08011  |     1.10075
    4 C                |   2 C                |     3.02443  |     1.60046
    4 C                |   3 H                |     2.08011  |     1.10075
    6 C                |   4 C                |     2.87483  |     1.52130
    6 C                |   5 H                |     2.07253  |     1.09673
    8 C                |   2 C                |     2.87483  |     1.52130
    8 C                |   7 H                |     2.07253  |     1.09673
   10 C                |   4 C                |     3.00221  |     1.58870
   10 C                |   9 H                |     2.07922  |     1.10028
   12 C                |   2 C                |     3.00221  |     1.58870
   12 C                |  10 C                |     2.94685  |     1.55940
   12 C                |  11 H                |     2.07922  |     1.10028
   14 C                |   8 C                |     2.87483  |     1.52130
   14 C                |  12 C                |     3.00221  |     1.58870
   14 C                |  13 H                |     2.08011  |     1.10075
   16 C                |   6 C                |     2.87483  |     1.52130
   16 C                |  10 C                |     3.00221  |     1.58870
   16 C                |  14 C                |     3.02443  |     1.60046
   16 C                |  15 H                |     2.08011  |     1.10075
 ------------------------------------------------------------------------------
                         number of included internuclear distances:         19
 ==============================================================================



 ==============================================================================
                                 internuclear angles
 ------------------------------------------------------------------------------
        center 1       |       center 2       |       center 3       |  degrees
 ------------------------------------------------------------------------------
    1 H                |   2 C                |   4 C                |   116.00
    1 H                |   2 C                |   8 C                |   121.28
    1 H                |   2 C                |  12 C                |   124.38
    4 C                |   2 C                |   8 C                |   111.33
    4 C                |   2 C                |  12 C                |    89.26
    8 C                |   2 C                |  12 C                |    87.82
    2 C                |   4 C                |   3 H                |   116.00
    2 C                |   4 C                |   6 C                |   111.33
    2 C                |   4 C                |  10 C                |    89.26
    3 H                |   4 C                |   6 C                |   121.28
    3 H                |   4 C                |  10 C                |   124.38
    6 C                |   4 C                |  10 C                |    87.82
    4 C                |   6 C                |   5 H                |   124.98
    4 C                |   6 C                |  16 C                |    90.60
    5 H                |   6 C                |  16 C                |   124.98
    2 C                |   8 C                |   7 H                |   124.98
    2 C                |   8 C                |  14 C                |    90.60
    7 H                |   8 C                |  14 C                |   124.98
    4 C                |  10 C                |   9 H                |   124.21
    4 C                |  10 C                |  12 C                |    90.74
    4 C                |  10 C                |  16 C                |    85.78
    9 H                |  10 C                |  12 C                |   128.86
    9 H                |  10 C                |  16 C                |   124.21
   12 C                |  10 C                |  16 C                |    90.74
    2 C                |  12 C                |  10 C                |    90.74
    2 C                |  12 C                |  11 H                |   124.21
    2 C                |  12 C                |  14 C                |    85.78
   10 C                |  12 C                |  11 H                |   128.86
   10 C                |  12 C                |  14 C                |    90.74
   11 H                |  12 C                |  14 C                |   124.21
    8 C                |  14 C                |  12 C                |    87.82
    8 C                |  14 C                |  13 H                |   121.28
    8 C                |  14 C                |  16 C                |   111.33
   12 C                |  14 C                |  13 H                |   124.38
   12 C                |  14 C                |  16 C                |    89.26
   13 H                |  14 C                |  16 C                |   116.00
    6 C                |  16 C                |  10 C                |    87.82
    6 C                |  16 C                |  14 C                |   111.33
    6 C                |  16 C                |  15 H                |   121.28
   10 C                |  16 C                |  14 C                |    89.26
   10 C                |  16 C                |  15 H                |   124.38
   14 C                |  16 C                |  15 H                |   116.00
 ------------------------------------------------------------------------------
                            number of included internuclear angles:         42
 ==============================================================================



  library name resolved from: environment
  library file name is: </home/vladimir/bin/nwchem-6.8/src/basis/libraries/>
  
                      Basis "ao basis" -> "" (spherical)
                      -----
  H (Hydrogen)
  ------------
            Exponent  Coefficients 
       -------------- ---------------------------------------------------------
  1 S  1.30100000E+01  0.019685
  1 S  1.96200000E+00  0.137977
  1 S  4.44600000E-01  0.478148

  2 S  1.22000000E-01  1.000000

  3 P  7.27000000E-01  1.000000

  C (Carbon)
  ----------
            Exponent  Coefficients 
       -------------- ---------------------------------------------------------
  1 S  6.66500000E+03  0.000692
  1 S  1.00000000E+03  0.005329
  1 S  2.28000000E+02  0.027077
  1 S  6.47100000E+01  0.101718
  1 S  2.10600000E+01  0.274740
  1 S  7.49500000E+00  0.448564
  1 S  2.79700000E+00  0.285074
  1 S  5.21500000E-01  0.015204

  2 S  6.66500000E+03 -0.000146
  2 S  1.00000000E+03 -0.001154
  2 S  2.28000000E+02 -0.005725
  2 S  6.47100000E+01 -0.023312
  2 S  2.10600000E+01 -0.063955
  2 S  7.49500000E+00 -0.149981
  2 S  2.79700000E+00 -0.127262
  2 S  5.21500000E-01  0.544529

  3 S  1.59600000E-01  1.000000

  4 P  9.43900000E+00  0.038109
  4 P  2.00200000E+00  0.209480
  4 P  5.45600000E-01  0.508557

  5 P  1.51700000E-01  1.000000

  6 D  5.50000000E-01  1.000000



 Summary of "ao basis" -> "" (spherical)
 ------------------------------------------------------------------------------
       Tag                 Description            Shells   Functions and Types
 ---------------- ------------------------------  ------  ---------------------
 H                          cc-pVDZ                  3        5   2s1p
 C                          cc-pVDZ                  6       14   3s2p1d




                           NWChem Geometry Optimization
                           ----------------------------




               cubane T-biradical MP2/cc-pVDZ geometry optimization


 maximum gradient threshold         (gmax) =   0.000450
 rms gradient threshold             (grms) =   0.000300
 maximum cartesian step threshold   (xmax) =   0.001800
 rms cartesian step threshold       (xrms) =   0.001200
 fixed trust radius                (trust) =   0.300000
 maximum step size to saddle      (sadstp) =   0.100000
 energy precision                  (eprec) =   1.0D-07
 maximum number of steps          (nptopt) =   20
 initial hessian option           (inhess) =    0
 line search option               (linopt) =    1
 hessian update option            (modupd) =    1
 saddle point option              (modsad) =    0
 initial eigen-mode to follow     (moddir) =    0
 initial variable to follow       (vardir) =    0
 follow first negative mode     (firstneg) =    T
 apply conjugacy                    (opcg) =    F
 source of zmatrix                         =   autoz   


          -------------------
          Energy Minimization
          -------------------


 Names of Z-matrix variables 
    1              2              3              4              5         
    6              7              8              9             10         
   11             12             13             14             15         
   16             17             18             19             20         
   21             22             23             24             25         
   26             27             28             29             30         
   31             32             33             34             35         
   36             37             38             39             40         
   41             42             43             44             45         
   46             47             48             49             50         
   51             52             53             54             55         
   56             57             58             59             60         
   61             62             63             64             65         
   66             67             68             69             70         
   71             72             73             74             75         
   76             77             78             79             80         
   81             82             83             84             85         
   86             87             88             89             90         
   91             92             93             94             95         
   96             97             98             99            100         
  101            102            103            104            105         
  106            107            108            109            110         
  111            112            113            114            115         
  116            117            118            119            120         
  121            122            123            124            125         
  126            127            128            129            130         
  131            132            133            134            135         
  136            137            138            139            140         
  141            142            143            144            145         
  146            147            148         

 Variables with the same non-blank name are constrained to be equal


 Using diagonal initial Hessian 
 Scaling for Hessian diagonals: bonds = 1.00  angles = 0.25  torsions = 0.10

          --------
          Step   0
          --------


                         Geometry "geometry" -> "geometry"
                         ---------------------------------

 Output coordinates in angstroms (scale by  1.889725989 to convert to a.u.)

  No.       Tag          Charge          X              Y              Z
 ---- ---------------- ---------- -------------- -------------- --------------
    1 H                    1.0000     2.06764061     1.28283203    -0.00592891
    2 C                    6.0000     1.08129134     0.80023067    -0.08243644
    3 H                    1.0000     2.06764061    -1.28283203    -0.00592891
    4 C                    6.0000     1.08129134    -0.80023067    -0.08243644
    5 H                    1.0000     0.00000000    -2.35975410    -1.43482569
    6 C                    6.0000     0.00000000    -1.35361119    -0.99836162
    7 H                    1.0000     0.00000000     2.35975410    -1.43482569
    8 C                    6.0000     0.00000000     1.35361119    -0.99836162
    9 H                    1.0000     0.00000000    -1.47004282     1.93809275
   10 C                    6.0000     0.00000000    -0.77970203     1.08133294
   11 H                    1.0000     0.00000000     1.47004282     1.93809275
   12 C                    6.0000     0.00000000     0.77970203     1.08133294
   13 H                    1.0000    -2.06764061     1.28283203    -0.00592891
   14 C                    6.0000    -1.08129134     0.80023067    -0.08243644
   15 H                    1.0000    -2.06764061    -1.28283203    -0.00592891
   16 C                    6.0000    -1.08129134    -0.80023067    -0.08243644

      Atomic Mass 
      ----------- 

      H                  1.007825
      C                 12.000000


 Effective nuclear repulsion energy (a.u.)     355.6481113583

            Nuclear Dipole moment (a.u.) 
            ----------------------------
        X                 Y               Z
 ---------------- ---------------- ----------------
     0.0000000000     0.0000000000    -0.0000000000

      Symmetry information
      --------------------

 Group name             C2v       
 Group number             16
 Group order               4
 No. of unique centers     6

      Symmetry unique atoms

     1    2    5    6    9   10

                                 NWChem SCF Module
                                 -----------------


               cubane T-biradical MP2/cc-pVDZ geometry optimization



  ao basis        = "ao basis"
  functions       =   152
  atoms           =    16
  alpha electrons =    29
  beta  electrons =    27
  charge          =   0.00
  wavefunction    = UHF 
  input vectors   = atomic
  output vectors  = ./triplet.movecs
  use symmetry    = T
  symmetry adapt  = T


 Summary of "ao basis" -> "ao basis" (spherical)
 ------------------------------------------------------------------------------
       Tag                 Description            Shells   Functions and Types
 ---------------- ------------------------------  ------  ---------------------
 H                          cc-pVDZ                  3        5   2s1p
 C                          cc-pVDZ                  6       14   3s2p1d


      Symmetry analysis of basis
      --------------------------

        a1         47
        a2         29
        b1         29
        b2         47


 Forming initial guess at       0.2s


      Superposition of Atomic Density Guess
      -------------------------------------

 Sum of atomic energies:        -305.32340088

      Non-variational initial energy
      ------------------------------

 Total energy =    -311.093823
 1-e energy   =   -1114.703365
 2-e energy   =     447.961431
 HOMO         =      -0.131142
 LUMO         =      -0.122645


   Symmetry analysis of molecular orbitals - initial alpha
   -------------------------------------------------------

  Numbering of irreducible representations: 

     1 a1          2 a2          3 b1          4 b2      

  Orbital symmetries:

     1 a1          2 b1          3 b2          4 a2          5 a1      
     6 b2          7 a1          8 b2          9 a1         10 b2      
    11 b1         12 a1         13 b2         14 a2         15 a1      
    16 a1         17 b2         18 b2         19 a1         20 b1      
    21 a1         22 b1         23 b1         24 a2         25 b2      
    26 a1         27 a2         28 b2         29 a1         30 a1      
    31 b1         32 a1         33 b2         34 b2         35 a2      
    36 b1         37 a1         38 a1         39 b2      


   Symmetry analysis of molecular orbitals - initial beta
   ------------------------------------------------------

  Numbering of irreducible representations: 

     1 a1          2 a2          3 b1          4 b2      

  Orbital symmetries:

     1 a1          2 b1          3 b2          4 a2          5 a1      
     6 b2          7 a1          8 b2          9 a1         10 b2      
    11 b1         12 a1         13 b2         14 a2         15 a1      
    16 a1         17 b2         18 b2         19 a1         20 b1      
    21 a1         22 b1         23 b1         24 a2         25 b2      
    26 a1         27 a2         28 b2         29 a1         30 a1      
    31 b1         32 a1         33 b2         34 b2         35 a2      
    36 b1         37 a1         38 a1         39 b2      


 Starting SCF solution at       1.1s



 ----------------------------------------------
         Quadratically convergent UHF

 Convergence threshold     :          1.000E-06
 Maximum no. of iterations :           30
 Integral*density screening:          1.000E-08
 ----------------------------------------------


              iter       energy          gnorm     gmax       time
             ----- ------------------- --------- --------- --------
                 1     -307.2517611399  6.86D-01  1.09D-01      5.2
                 2     -307.3697051104  2.07D-01  3.60D-02     11.6
                 3     -307.3801288752  1.66D-02  3.84D-03     22.8
                 4     -307.3802270673  1.60D-04  3.45D-05     41.6
                 5     -307.3802270856  2.49D-07  3.44D-08     72.5


       Final UHF  results 
       ------------------ 

         Total SCF energy =   -307.380227085568
      One electron energy =  -1120.218628080700
      Two electron energy =    457.190289636806
 Nuclear repulsion energy =    355.648111358326

                       Sz =      1.0000
                 Sz(Sz+1) =      2.0000
                      S^2 =      2.0245

        Time for solution =     70.5s



       Symmetry analysis of molecular orbitals - alpha
       -----------------------------------------------

  Numbering of irreducible representations: 

     1 a1          2 a2          3 b1          4 b2      

  Orbital symmetries:

     1 a1          2 b2          3 b1          4 a1          5 b2      
     6 a2          7 a1          8 b2          9 a1         10 b2      
    11 b1         12 a1         13 b2         14 a2         15 a1      
    16 a1         17 b2         18 b2         19 a1         20 a1      
    21 b1         22 b1         23 b2         24 a2         25 b1      
    26 a1         27 a2         28 b2         29 a1         30 a1      
    31 b1         32 a1         33 b2         34 b2         35 a1      
    36 a2         37 a1         38 b2         39 b1      


       Symmetry analysis of molecular orbitals - beta
       ----------------------------------------------

  Numbering of irreducible representations: 

     1 a1          2 a2          3 b1          4 b2      

  Orbital symmetries:

     1 a1          2 b1          3 b2          4 a2          5 a1      
     6 b2          7 b2          8 a1          9 a1         10 b2      
    11 b1         12 a1         13 a2         14 b2         15 a1      
    16 a1         17 b2         18 b2         19 a1         20 b1      
    21 b1         22 a1         23 b1         24 a2         25 b2      
    26 a1         27 a2         28 a1         29 b2         30 a1      
    31 b1         32 a1         33 b2         34 a2         35 b2      
    36 a1         37 b2         38 b1         39 a1      

          Final alpha eigenvalues
          -----------------------

              1      
    1  -11.2385
    2  -11.2380
    3  -11.2372
    4  -11.2372
    5  -11.2368
    6  -11.2368
    7  -11.2347
    8  -11.2347
    9   -1.2254
   10   -1.0576
   11   -0.9649
   12   -0.9476
   13   -0.8060
   14   -0.7870
   15   -0.7760
   16   -0.7052
   17   -0.6505
   18   -0.6078
   19   -0.5957
   20   -0.5775
   21   -0.5742
   22   -0.5226
   23   -0.4508
   24   -0.4448
   25   -0.4446
   26   -0.4037
   27   -0.3807
   28   -0.3278
   29   -0.3183
   30    0.1770
   31    0.2095
   32    0.2105
   33    0.2179
   34    0.2435
   35    0.2529
   36    0.2531
   37    0.2685
   38    0.2707
   39    0.2738

          Final beta eigenvalues
          ----------------------

              1      
    1  -11.2383
    2  -11.2382
    3  -11.2378
    4  -11.2378
    5  -11.2350
    6  -11.2345
    7  -11.2092
    8  -11.2092
    9   -1.2083
   10   -1.0187
   11   -0.9619
   12   -0.9036
   13   -0.7850
   14   -0.7621
   15   -0.7437
   16   -0.6998
   17   -0.6345
   18   -0.6002
   19   -0.5781
   20   -0.5685
   21   -0.5144
   22   -0.5123
   23   -0.4337
   24   -0.4287
   25   -0.4116
   26   -0.3950
   27   -0.3752
   28    0.1463
   29    0.1471
   30    0.1822
   31    0.2120
   32    0.2225
   33    0.2260
   34    0.2549
   35    0.2566
   36    0.2589
   37    0.2741
   38    0.2752
   39    0.2776

                    UHF Final Alpha Molecular Orbital Analysis
                    ------------------------------------------

 Vector    9  Occ=1.000000D+00  E=-1.225439D+00  Symmetry=a1
              MO Center= -5.1D-17, -2.0D-16,  1.2D-01, r^2= 1.8D+00
   Bfn.  Coefficient  Atom+Function         Bfn.  Coefficient  Atom+Function  
  ----- ------------  ---------------      ----- ------------  ---------------
    83      0.154511  10 C  s               102      0.154511  12 C  s         

 Vector   10  Occ=1.000000D+00  E=-1.057590D+00  Symmetry=b2
              MO Center=  6.6D-15, -9.8D-16, -2.6D-01, r^2= 2.7D+00
   Bfn.  Coefficient  Atom+Function         Bfn.  Coefficient  Atom+Function  
  ----- ------------  ---------------      ----- ------------  ---------------
    45      0.198765   6 C  s                64     -0.198765   8 C  s         

 Vector   11  Occ=1.000000D+00  E=-9.649282D-01  Symmetry=b1
              MO Center= -2.8D-15, -1.4D-16, -1.6D-02, r^2= 2.8D+00
   Bfn.  Coefficient  Atom+Function         Bfn.  Coefficient  Atom+Function  
  ----- ------------  ---------------      ----- ------------  ---------------
     7      0.197950   2 C  s                26      0.197950   4 C  s         
   121     -0.197950  14 C  s               140     -0.197950  16 C  s         
     8      0.168704   2 C  s                27      0.168704   4 C  s         
   122     -0.168704  14 C  s               141     -0.168704  16 C  s         

 Vector   12  Occ=1.000000D+00  E=-9.475568D-01  Symmetry=a1
              MO Center=  1.9D-17, -3.0D-16,  3.5D-02, r^2= 3.2D+00
   Bfn.  Coefficient  Atom+Function         Bfn.  Coefficient  Atom+Function  
  ----- ------------  ---------------      ----- ------------  ---------------
    45      0.205447   6 C  s                64      0.205447   8 C  s         
    83     -0.192183  10 C  s               102     -0.192183  12 C  s         
    46      0.180756   6 C  s                65      0.180756   8 C  s         
    84     -0.178395  10 C  s               103     -0.178395  12 C  s         

 Vector   13  Occ=1.000000D+00  E=-8.059683D-01  Symmetry=b2
              MO Center=  3.7D-17, -5.6D-17,  1.5D-01, r^2= 4.2D+00
   Bfn.  Coefficient  Atom+Function         Bfn.  Coefficient  Atom+Function  
  ----- ------------  ---------------      ----- ------------  ---------------
    84      0.240042  10 C  s               103     -0.240042  12 C  s         
    46     -0.208578   6 C  s                65      0.208578   8 C  s         
    83      0.191642  10 C  s               102     -0.191642  12 C  s         
    45     -0.180374   6 C  s                64      0.180374   8 C  s         
    77      0.150216   9 H  s                96     -0.150216  11 H  s         

 Vector   14  Occ=1.000000D+00  E=-7.869829D-01  Symmetry=a2
              MO Center= -2.8D-15,  2.7D-16, -1.2D-01, r^2= 3.9D+00
   Bfn.  Coefficient  Atom+Function         Bfn.  Coefficient  Atom+Function  
  ----- ------------  ---------------      ----- ------------  ---------------
     8      0.201644   2 C  s                27     -0.201644   4 C  s         
   122     -0.201644  14 C  s               141      0.201644  16 C  s         
     7      0.175470   2 C  s                26     -0.175470   4 C  s         
   121     -0.175470  14 C  s               140      0.175470  16 C  s         

 Vector   15  Occ=1.000000D+00  E=-7.760452D-01  Symmetry=a1
              MO Center= -1.3D-14, -1.3D-16, -2.5D-02, r^2= 4.3D+00
   Bfn.  Coefficient  Atom+Function         Bfn.  Coefficient  Atom+Function  
  ----- ------------  ---------------      ----- ------------  ---------------
    46      0.172860   6 C  s                65      0.172860   8 C  s         

 Vector   16  Occ=1.000000D+00  E=-7.052388D-01  Symmetry=a1
              MO Center=  4.3D-16, -1.0D-17,  1.9D-01, r^2= 4.3D+00
   Bfn.  Coefficient  Atom+Function         Bfn.  Coefficient  Atom+Function  
  ----- ------------  ---------------      ----- ------------  ---------------
     9      0.155385   2 C  px               28      0.155385   4 C  px        
   123     -0.155385  14 C  px              142     -0.155385  16 C  px        
     1      0.151986   1 H  s                20      0.151986   3 H  s         
   115      0.151986  13 H  s               134      0.151986  15 H  s         

 Vector   17  Occ=1.000000D+00  E=-6.505357D-01  Symmetry=b2
              MO Center= -9.2D-15,  4.0D-15,  1.8D-01, r^2= 5.3D+00
   Bfn.  Coefficient  Atom+Function         Bfn.  Coefficient  Atom+Function  
  ----- ------------  ---------------      ----- ------------  ---------------
    77      0.184251   9 H  s                96     -0.184251  11 H  s         
    39      0.154098   5 H  s                58     -0.154098   7 H  s         

 Vector   18  Occ=1.000000D+00  E=-6.078369D-01  Symmetry=b2
              MO Center=  1.9D-15, -1.1D-14, -1.1D-01, r^2= 4.5D+00
   Bfn.  Coefficient  Atom+Function         Bfn.  Coefficient  Atom+Function  
  ----- ------------  ---------------      ----- ------------  ---------------
     9      0.184566   2 C  px               28     -0.184566   4 C  px        
   123     -0.184566  14 C  px              142      0.184566  16 C  px        
     1      0.173445   1 H  s                20     -0.173445   3 H  s         
   115      0.173445  13 H  s               134     -0.173445  15 H  s         

 Vector   19  Occ=1.000000D+00  E=-5.956802D-01  Symmetry=a1
              MO Center=  3.5D-15,  1.3D-14, -1.4D-01, r^2= 3.7D+00
   Bfn.  Coefficient  Atom+Function         Bfn.  Coefficient  Atom+Function  
  ----- ------------  ---------------      ----- ------------  ---------------
    86     -0.235550  10 C  py              105      0.235550  12 C  py        
    49      0.228631   6 C  pz               68      0.228631   8 C  pz        

 Vector   20  Occ=1.000000D+00  E=-5.775076D-01  Symmetry=a1
              MO Center= -3.7D-14, -6.8D-16,  1.2D-01, r^2= 3.9D+00
   Bfn.  Coefficient  Atom+Function         Bfn.  Coefficient  Atom+Function  
  ----- ------------  ---------------      ----- ------------  ---------------
    48      0.215415   6 C  py               67     -0.215415   8 C  py        
    87      0.201023  10 C  pz              106      0.201023  12 C  pz        
    77      0.178965   9 H  s                96      0.178965  11 H  s         

 Vector   21  Occ=1.000000D+00  E=-5.741698D-01  Symmetry=b1
              MO Center=  1.6D-14,  2.3D-16,  7.5D-02, r^2= 3.2D+00
   Bfn.  Coefficient  Atom+Function         Bfn.  Coefficient  Atom+Function  
  ----- ------------  ---------------      ----- ------------  ---------------
    85      0.202234  10 C  px              104      0.202234  12 C  px        
    11      0.151241   2 C  pz               30      0.151241   4 C  pz        
   125     -0.151241  14 C  pz              144     -0.151241  16 C  pz        

 Vector   22  Occ=1.000000D+00  E=-5.226437D-01  Symmetry=b1
              MO Center=  3.7D-14, -1.2D-14, -2.6D-01, r^2= 3.7D+00
   Bfn.  Coefficient  Atom+Function         Bfn.  Coefficient  Atom+Function  
  ----- ------------  ---------------      ----- ------------  ---------------
    47      0.209325   6 C  px               66      0.209325   8 C  px        
     9     -0.170325   2 C  px               28     -0.170325   4 C  px        
   123     -0.170325  14 C  px              142     -0.170325  16 C  px        
     1     -0.158663   1 H  s                20     -0.158663   3 H  s         
   115      0.158663  13 H  s               134      0.158663  15 H  s         

 Vector   23  Occ=1.000000D+00  E=-4.507888D-01  Symmetry=b2
              MO Center=  9.7D-18, -6.5D-16, -2.1D-01, r^2= 4.0D+00
   Bfn.  Coefficient  Atom+Function         Bfn.  Coefficient  Atom+Function  
  ----- ------------  ---------------      ----- ------------  ---------------
    48      0.276011   6 C  py               67      0.276011   8 C  py        
    87      0.198714  10 C  pz              106     -0.198714  12 C  pz        
    51      0.174901   6 C  py               70      0.174901   8 C  py        
    39     -0.160734   5 H  s                58      0.160734   7 H  s         
    77      0.153940   9 H  s                96     -0.153940  11 H  s         

 Vector   24  Occ=1.000000D+00  E=-4.448492D-01  Symmetry=a2
              MO Center=  1.1D-15,  1.2D-14, -4.2D-01, r^2= 3.6D+00
   Bfn.  Coefficient  Atom+Function         Bfn.  Coefficient  Atom+Function  
  ----- ------------  ---------------      ----- ------------  ---------------
    47      0.296497   6 C  px               66     -0.296497   8 C  px        
     9      0.155898   2 C  px               28     -0.155898   4 C  px        
   123      0.155898  14 C  px              142     -0.155898  16 C  px        
    11      0.151001   2 C  pz               30     -0.151001   4 C  pz        
    50      0.150490   6 C  px               69     -0.150490   8 C  px        

 Vector   25  Occ=1.000000D+00  E=-4.446243D-01  Symmetry=b1
              MO Center=  8.1D-15, -2.0D-15,  4.0D-02, r^2= 2.9D+00
   Bfn.  Coefficient  Atom+Function         Bfn.  Coefficient  Atom+Function  
  ----- ------------  ---------------      ----- ------------  ---------------
    10      0.238105   2 C  py               29     -0.238105   4 C  py        
   124     -0.238105  14 C  py              143      0.238105  16 C  py        
    85      0.185791  10 C  px              104      0.185791  12 C  px        

 Vector   26  Occ=1.000000D+00  E=-4.037426D-01  Symmetry=a1
              MO Center= -1.5D-14,  1.1D-15,  3.8D-01, r^2= 3.3D+00
   Bfn.  Coefficient  Atom+Function         Bfn.  Coefficient  Atom+Function  
  ----- ------------  ---------------      ----- ------------  ---------------
    86      0.294581  10 C  py              105     -0.294581  12 C  py        
    89      0.186204  10 C  py              108     -0.186204  12 C  py        
    10      0.178881   2 C  py               29     -0.178881   4 C  py        
   124      0.178881  14 C  py              143     -0.178881  16 C  py        

 Vector   27  Occ=1.000000D+00  E=-3.807371D-01  Symmetry=a2
              MO Center= -1.0D-15, -7.9D-16,  4.4D-01, r^2= 3.0D+00
   Bfn.  Coefficient  Atom+Function         Bfn.  Coefficient  Atom+Function  
  ----- ------------  ---------------      ----- ------------  ---------------
    85      0.301359  10 C  px              104     -0.301359  12 C  px        
    88      0.202500  10 C  px              107     -0.202500  12 C  px        
     9      0.160997   2 C  px               28     -0.160997   4 C  px        
   123      0.160997  14 C  px              142     -0.160997  16 C  px        
    11     -0.158636   2 C  pz               30      0.158636   4 C  pz        

 Vector   28  Occ=1.000000D+00  E=-3.277821D-01  Symmetry=b2
              MO Center=  1.3D-15, -2.9D-15, -5.9D-01, r^2= 3.5D+00
   Bfn.  Coefficient  Atom+Function         Bfn.  Coefficient  Atom+Function  
  ----- ------------  ---------------      ----- ------------  ---------------
    49      0.360489   6 C  pz               68     -0.360489   8 C  pz        
    52      0.328866   6 C  pz               71     -0.328866   8 C  pz        
    84     -0.175716  10 C  s               103      0.175716  12 C  s         
    48     -0.169990   6 C  py               67     -0.169990   8 C  py        
    87      0.159187  10 C  pz              106     -0.159187  12 C  pz        

 Vector   29  Occ=1.000000D+00  E=-3.182770D-01  Symmetry=a1
              MO Center=  5.6D-15,  8.4D-16, -5.8D-01, r^2= 3.5D+00
   Bfn.  Coefficient  Atom+Function         Bfn.  Coefficient  Atom+Function  
  ----- ------------  ---------------      ----- ------------  ---------------
    49      0.281811   6 C  pz               52      0.283000   6 C  pz        
    68      0.281811   8 C  pz               71      0.283000   8 C  pz        
    51     -0.199007   6 C  py               70      0.199007   8 C  py        
    48     -0.197866   6 C  py               67      0.197866   8 C  py        
    87      0.157698  10 C  pz              106      0.157698  12 C  pz        

 Vector   30  Occ=0.000000D+00  E= 1.769660D-01  Symmetry=a1
              MO Center= -1.1D-15, -3.2D-18,  1.4D-01, r^2= 1.0D+01
   Bfn.  Coefficient  Atom+Function         Bfn.  Coefficient  Atom+Function  
  ----- ------------  ---------------      ----- ------------  ---------------
     2      0.700518   1 H  s                21      0.700518   3 H  s         
   116      0.700518  13 H  s               135      0.700518  15 H  s         
    46     -0.653023   6 C  s                65     -0.653023   8 C  s         
    78      0.638754   9 H  s                97      0.638754  11 H  s         
    40      0.581023   5 H  s                59      0.581023   7 H  s         

 Vector   31  Occ=0.000000D+00  E= 2.094652D-01  Symmetry=b1
              MO Center=  9.7D-15, -8.6D-16,  1.0D-01, r^2= 8.9D+00
   Bfn.  Coefficient  Atom+Function         Bfn.  Coefficient  Atom+Function  
  ----- ------------  ---------------      ----- ------------  ---------------
     8      0.986387   2 C  s                27      0.986387   4 C  s         
   122     -0.986387  14 C  s               141     -0.986387  16 C  s         
     2     -0.886273   1 H  s                21     -0.886273   3 H  s         
   116      0.886273  13 H  s               135      0.886273  15 H  s         
    88     -0.382429  10 C  px              107     -0.382429  12 C  px        

 Vector   32  Occ=0.000000D+00  E= 2.104623D-01  Symmetry=a1
              MO Center= -9.5D-16,  6.0D-16,  6.3D-01, r^2= 7.6D+00
   Bfn.  Coefficient  Atom+Function         Bfn.  Coefficient  Atom+Function  
  ----- ------------  ---------------      ----- ------------  ---------------
    84      1.230362  10 C  s               103      1.230362  12 C  s         
    46     -0.956845   6 C  s                65     -0.956845   8 C  s         
    78     -0.850965   9 H  s                97     -0.850965  11 H  s         
    40      0.556153   5 H  s                59      0.556153   7 H  s         
    14     -0.388257   2 C  pz               33     -0.388257   4 C  pz        

 Vector   33  Occ=0.000000D+00  E= 2.178885D-01  Symmetry=b2
              MO Center=  1.8D-16, -4.9D-16, -2.9D-01, r^2= 1.2D+01
   Bfn.  Coefficient  Atom+Function         Bfn.  Coefficient  Atom+Function  
  ----- ------------  ---------------      ----- ------------  ---------------
    40      1.223360   5 H  s                59     -1.223360   7 H  s         
    78      0.895879   9 H  s                97     -0.895879  11 H  s         
     8      0.801950   2 C  s                27     -0.801950   4 C  s         
   122      0.801950  14 C  s               141     -0.801950  16 C  s         
    51      0.705053   6 C  py               70      0.705053   8 C  py        

 Vector   34  Occ=0.000000D+00  E= 2.434673D-01  Symmetry=b2
              MO Center= -6.7D-17,  1.6D-16,  5.7D-01, r^2= 1.1D+01
   Bfn.  Coefficient  Atom+Function         Bfn.  Coefficient  Atom+Function  
  ----- ------------  ---------------      ----- ------------  ---------------
    78      1.285590   9 H  s                97     -1.285590  11 H  s         
    40     -1.009636   5 H  s                59      1.009636   7 H  s         
    90     -0.858310  10 C  pz              109      0.858310  12 C  pz        
    46      0.748198   6 C  s                65     -0.748198   8 C  s         
    84     -0.554923  10 C  s               103      0.554923  12 C  s         

 Vector   35  Occ=0.000000D+00  E= 2.528613D-01  Symmetry=a1
              MO Center= -5.0D-15, -6.3D-16,  4.1D-01, r^2= 1.1D+01
   Bfn.  Coefficient  Atom+Function         Bfn.  Coefficient  Atom+Function  
  ----- ------------  ---------------      ----- ------------  ---------------
    78      1.077145   9 H  s                97      1.077145  11 H  s         
    40      0.850751   5 H  s                59      0.850751   7 H  s         
     2     -0.840329   1 H  s                21     -0.840329   3 H  s         
   116     -0.840329  13 H  s               135     -0.840329  15 H  s         
    46     -0.633270   6 C  s                65     -0.633270   8 C  s         

 Vector   36  Occ=0.000000D+00  E= 2.531499D-01  Symmetry=a2
              MO Center= -1.5D-15, -6.5D-16,  1.5D-02, r^2= 1.1D+01
   Bfn.  Coefficient  Atom+Function         Bfn.  Coefficient  Atom+Function  
  ----- ------------  ---------------      ----- ------------  ---------------
     2      1.283153   1 H  s                21     -1.283153   3 H  s         
   116     -1.283153  13 H  s               135      1.283153  15 H  s         
     8     -0.837668   2 C  s                27      0.837668   4 C  s         
   122      0.837668  14 C  s               141     -0.837668  16 C  s         
    12     -0.811810   2 C  px               31      0.811810   4 C  px        

 Vector   37  Occ=0.000000D+00  E= 2.685456D-01  Symmetry=a1
              MO Center= -2.6D-15, -1.0D-15, -2.4D-01, r^2= 8.8D+00
   Bfn.  Coefficient  Atom+Function         Bfn.  Coefficient  Atom+Function  
  ----- ------------  ---------------      ----- ------------  ---------------
    40      1.171608   5 H  s                59      1.171608   7 H  s         
    90      0.768196  10 C  pz              109      0.768196  12 C  pz        
    78     -0.761772   9 H  s                97     -0.761772  11 H  s         
    51      0.686991   6 C  py               70     -0.686991   8 C  py        
    14      0.458617   2 C  pz               33      0.458617   4 C  pz        

 Vector   38  Occ=0.000000D+00  E= 2.706663D-01  Symmetry=b2
              MO Center=  1.2D-15, -1.8D-15,  5.7D-01, r^2= 1.1D+01
   Bfn.  Coefficient  Atom+Function         Bfn.  Coefficient  Atom+Function  
  ----- ------------  ---------------      ----- ------------  ---------------
     2      1.284436   1 H  s                21     -1.284436   3 H  s         
   116      1.284436  13 H  s               135     -1.284436  15 H  s         
    78      1.269264   9 H  s                97     -1.269264  11 H  s         
    12     -1.205344   2 C  px               31      1.205344   4 C  px        
   126      1.205344  14 C  px              145     -1.205344  16 C  px        

 Vector   39  Occ=0.000000D+00  E= 2.737687D-01  Symmetry=b1
              MO Center= -1.3D-15, -5.5D-16,  3.6D-01, r^2= 6.5D+00
   Bfn.  Coefficient  Atom+Function         Bfn.  Coefficient  Atom+Function  
  ----- ------------  ---------------      ----- ------------  ---------------
     2      0.819671   1 H  s                21      0.819671   3 H  s         
   116     -0.819671  13 H  s               135     -0.819671  15 H  s         
    12     -0.785977   2 C  px               31     -0.785977   4 C  px        
   126     -0.785977  14 C  px              145     -0.785977  16 C  px        
    88     -0.692272  10 C  px              107     -0.692272  12 C  px        

 Vector   40  Occ=0.000000D+00  E= 3.047479D-01  Symmetry=b2
              MO Center=  3.2D-16, -3.1D-16,  4.7D-01, r^2= 5.9D+00
   Bfn.  Coefficient  Atom+Function         Bfn.  Coefficient  Atom+Function  
  ----- ------------  ---------------      ----- ------------  ---------------
    89      1.018912  10 C  py              108      1.018912  12 C  py        
    13      0.766752   2 C  py               32      0.766752   4 C  py        
   127      0.766752  14 C  py              146      0.766752  16 C  py        
     8     -0.758258   2 C  s                27      0.758258   4 C  s         
   122     -0.758258  14 C  s               141      0.758258  16 C  s         

 Vector   41  Occ=0.000000D+00  E= 3.683225D-01  Symmetry=b1
              MO Center=  2.5D-16,  4.0D-16, -4.7D-01, r^2= 4.8D+00
   Bfn.  Coefficient  Atom+Function         Bfn.  Coefficient  Atom+Function  
  ----- ------------  ---------------      ----- ------------  ---------------
    50      1.197579   6 C  px               69      1.197579   8 C  px        
    14      0.698585   2 C  pz               33      0.698585   4 C  pz        
   128     -0.698585  14 C  pz              147     -0.698585  16 C  pz        
     8     -0.557090   2 C  s                27     -0.557090   4 C  s         
   122      0.557090  14 C  s               141      0.557090  16 C  s         

 Vector   42  Occ=0.000000D+00  E= 3.718277D-01  Symmetry=a2
              MO Center= -4.2D-16,  2.3D-15,  1.1D-03, r^2= 4.6D+00
   Bfn.  Coefficient  Atom+Function         Bfn.  Coefficient  Atom+Function  
  ----- ------------  ---------------      ----- ------------  ---------------
    13      1.120929   2 C  py               32      1.120929   4 C  py        
   127     -1.120929  14 C  py              146     -1.120929  16 C  py        
    88      0.669858  10 C  px              107     -0.669858  12 C  px        
    14      0.333214   2 C  pz               33     -0.333214   4 C  pz        
   128     -0.333214  14 C  pz              147      0.333214  16 C  pz        

 Vector   43  Occ=0.000000D+00  E= 3.985379D-01  Symmetry=b2
              MO Center=  8.2D-15, -4.1D-15, -1.1D-01, r^2= 5.6D+00
   Bfn.  Coefficient  Atom+Function         Bfn.  Coefficient  Atom+Function  
  ----- ------------  ---------------      ----- ------------  ---------------
    84      1.450512  10 C  s               103     -1.450512  12 C  s         
    46     -1.283822   6 C  s                65      1.283822   8 C  s         
    90     -1.187390  10 C  pz              109      1.187390  12 C  pz        
    14      1.098685   2 C  pz               33     -1.098685   4 C  pz        
   128      1.098685  14 C  pz              147     -1.098685  16 C  pz        

 Vector   44  Occ=0.000000D+00  E= 4.121737D-01  Symmetry=a2
              MO Center= -8.8D-17, -1.5D-15, -3.5D-01, r^2= 6.7D+00
   Bfn.  Coefficient  Atom+Function         Bfn.  Coefficient  Atom+Function  
  ----- ------------  ---------------      ----- ------------  ---------------
     8      1.889682   2 C  s                27     -1.889682   4 C  s         
   122     -1.889682  14 C  s               141      1.889682  16 C  s         
    12     -1.387187   2 C  px               31      1.387187   4 C  px        
   126     -1.387187  14 C  px              145      1.387187  16 C  px        
    50      1.082171   6 C  px               69     -1.082171   8 C  px        

 Vector   45  Occ=0.000000D+00  E= 4.344634D-01  Symmetry=a1
              MO Center=  6.5D-16, -6.2D-15,  5.3D-02, r^2= 6.0D+00
   Bfn.  Coefficient  Atom+Function         Bfn.  Coefficient  Atom+Function  
  ----- ------------  ---------------      ----- ------------  ---------------
    46     -1.931441   6 C  s                65     -1.931441   8 C  s         
     8      1.818234   2 C  s                27      1.818234   4 C  s         
   122      1.818234  14 C  s               141      1.818234  16 C  s         
    84     -1.381070  10 C  s               103     -1.381070  12 C  s         
    12     -1.268187   2 C  px               31     -1.268187   4 C  px        

 Vector   46  Occ=0.000000D+00  E= 4.826628D-01  Symmetry=b2
              MO Center=  1.3D-14, -2.7D-14,  1.2D-01, r^2= 5.7D+00
   Bfn.  Coefficient  Atom+Function         Bfn.  Coefficient  Atom+Function  
  ----- ------------  ---------------      ----- ------------  ---------------
    89     -1.774187  10 C  py              108     -1.774187  12 C  py        
    46      1.682771   6 C  s                65     -1.682771   8 C  s         
    13      1.324725   2 C  py               32      1.324725   4 C  py        
   127      1.324725  14 C  py              146      1.324725  16 C  py        
    84     -1.250147  10 C  s               103      1.250147  12 C  s         

 Vector   47  Occ=0.000000D+00  E= 5.138682D-01  Symmetry=a2
              MO Center= -2.2D-14, -1.4D-15,  1.3D-01, r^2= 5.4D+00
   Bfn.  Coefficient  Atom+Function         Bfn.  Coefficient  Atom+Function  
  ----- ------------  ---------------      ----- ------------  ---------------
    88      1.426771  10 C  px              107     -1.426771  12 C  px        
    50     -1.346331   6 C  px               69      1.346331   8 C  px        
    14      1.284072   2 C  pz               33     -1.284072   4 C  pz        
   128     -1.284072  14 C  pz              147      1.284072  16 C  pz        
    13     -1.039301   2 C  py               32     -1.039301   4 C  py        


                     UHF Final Beta Molecular Orbital Analysis
                     -----------------------------------------

 Vector    9  Occ=1.000000D+00  E=-1.208335D+00  Symmetry=a1
              MO Center=  2.0D-16, -4.1D-16,  1.9D-01, r^2= 1.8D+00
   Bfn.  Coefficient  Atom+Function         Bfn.  Coefficient  Atom+Function  
  ----- ------------  ---------------      ----- ------------  ---------------
    83      0.157670  10 C  s               102      0.157670  12 C  s         

 Vector   10  Occ=1.000000D+00  E=-1.018700D+00  Symmetry=b2
              MO Center=  3.3D-17, -2.1D-15, -1.0D-01, r^2= 2.7D+00
   Bfn.  Coefficient  Atom+Function         Bfn.  Coefficient  Atom+Function  
  ----- ------------  ---------------      ----- ------------  ---------------
    45      0.158904   6 C  s                64     -0.158904   8 C  s         

 Vector   11  Occ=1.000000D+00  E=-9.618997D-01  Symmetry=b1
              MO Center= -2.9D-15, -9.9D-16, -1.3D-02, r^2= 2.8D+00
   Bfn.  Coefficient  Atom+Function         Bfn.  Coefficient  Atom+Function  
  ----- ------------  ---------------      ----- ------------  ---------------
     7      0.199023   2 C  s                26      0.199023   4 C  s         
   121     -0.199023  14 C  s               140     -0.199023  16 C  s         
     8      0.172017   2 C  s                27      0.172017   4 C  s         
   122     -0.172017  14 C  s               141     -0.172017  16 C  s         

 Vector   12  Occ=1.000000D+00  E=-9.036293D-01  Symmetry=a1
              MO Center=  2.5D-15, -1.7D-16,  3.0D-01, r^2= 3.0D+00
   Bfn.  Coefficient  Atom+Function         Bfn.  Coefficient  Atom+Function  
  ----- ------------  ---------------      ----- ------------  ---------------
    84      0.207501  10 C  s               103      0.207501  12 C  s         
    83      0.201091  10 C  s               102      0.201091  12 C  s         
    45     -0.159198   6 C  s                64     -0.159198   8 C  s         

 Vector   13  Occ=1.000000D+00  E=-7.849736D-01  Symmetry=a2
              MO Center=  7.3D-16,  5.1D-16, -1.1D-01, r^2= 3.9D+00
   Bfn.  Coefficient  Atom+Function         Bfn.  Coefficient  Atom+Function  
  ----- ------------  ---------------      ----- ------------  ---------------
     8      0.200751   2 C  s                27     -0.200751   4 C  s         
   122     -0.200751  14 C  s               141      0.200751  16 C  s         
     7      0.179841   2 C  s                26     -0.179841   4 C  s         
   121     -0.179841  14 C  s               140      0.179841  16 C  s         

 Vector   14  Occ=1.000000D+00  E=-7.621492D-01  Symmetry=b2
              MO Center=  3.9D-19,  4.5D-16,  3.9D-01, r^2= 4.3D+00
   Bfn.  Coefficient  Atom+Function         Bfn.  Coefficient  Atom+Function  
  ----- ------------  ---------------      ----- ------------  ---------------
    84      0.247495  10 C  s               103     -0.247495  12 C  s         
    83      0.190804  10 C  s               102     -0.190804  12 C  s         
    77      0.183646   9 H  s                96     -0.183646  11 H  s         
    45     -0.161809   6 C  s                64      0.161809   8 C  s         

 Vector   15  Occ=1.000000D+00  E=-7.436951D-01  Symmetry=a1
              MO Center= -1.3D-15,  2.6D-16, -2.3D-01, r^2= 4.3D+00
   Bfn.  Coefficient  Atom+Function         Bfn.  Coefficient  Atom+Function  
  ----- ------------  ---------------      ----- ------------  ---------------
    45      0.160957   6 C  s                64      0.160957   8 C  s         
    39      0.150861   5 H  s                58      0.150861   7 H  s         

 Vector   16  Occ=1.000000D+00  E=-6.998167D-01  Symmetry=a1
              MO Center=  1.6D-16, -3.3D-16,  2.5D-01, r^2= 4.4D+00
   Bfn.  Coefficient  Atom+Function         Bfn.  Coefficient  Atom+Function  
  ----- ------------  ---------------      ----- ------------  ---------------
    77      0.145737   9 H  s                96      0.145737  11 H  s         
     9      0.141478   2 C  px               28      0.141478   4 C  px        
   123     -0.141478  14 C  px              142     -0.141478  16 C  px        
     1      0.137613   1 H  s                20      0.137613   3 H  s         
   115      0.137613  13 H  s               134      0.137613  15 H  s         

 Vector   17  Occ=1.000000D+00  E=-6.344514D-01  Symmetry=b2
              MO Center= -3.3D-16,  3.8D-15, -1.4D-01, r^2= 5.5D+00
   Bfn.  Coefficient  Atom+Function         Bfn.  Coefficient  Atom+Function  
  ----- ------------  ---------------      ----- ------------  ---------------
    39      0.187261   5 H  s                58     -0.187261   7 H  s         

 Vector   18  Occ=1.000000D+00  E=-6.001690D-01  Symmetry=b2
              MO Center= -2.0D-15, -1.3D-14, -1.5D-01, r^2= 4.6D+00
   Bfn.  Coefficient  Atom+Function         Bfn.  Coefficient  Atom+Function  
  ----- ------------  ---------------      ----- ------------  ---------------
     9      0.178317   2 C  px               28     -0.178317   4 C  px        
   123     -0.178317  14 C  px              142      0.178317  16 C  px        
     1      0.152988   1 H  s                20     -0.152988   3 H  s         
    39     -0.152545   5 H  s                58      0.152545   7 H  s         
   115      0.152988  13 H  s               134     -0.152988  15 H  s         

 Vector   19  Occ=1.000000D+00  E=-5.781194D-01  Symmetry=a1
              MO Center= -1.7D-15,  1.3D-14, -1.1D-02, r^2= 4.7D+00
   Bfn.  Coefficient  Atom+Function         Bfn.  Coefficient  Atom+Function  
  ----- ------------  ---------------      ----- ------------  ---------------
    86      0.233260  10 C  py              105     -0.233260  12 C  py        
    39      0.213081   5 H  s                58      0.213081   7 H  s         
    48     -0.171171   6 C  py               67      0.171171   8 C  py        
    77     -0.166800   9 H  s                96     -0.166800  11 H  s         

 Vector   20  Occ=1.000000D+00  E=-5.684693D-01  Symmetry=b1
              MO Center=  4.9D-14,  1.8D-16,  1.1D-01, r^2= 3.3D+00
   Bfn.  Coefficient  Atom+Function         Bfn.  Coefficient  Atom+Function  
  ----- ------------  ---------------      ----- ------------  ---------------
    85      0.198871  10 C  px              104      0.198871  12 C  px        

 Vector   21  Occ=1.000000D+00  E=-5.143772D-01  Symmetry=b1
              MO Center=  7.3D-16, -5.4D-18, -2.6D-01, r^2= 3.5D+00
   Bfn.  Coefficient  Atom+Function         Bfn.  Coefficient  Atom+Function  
  ----- ------------  ---------------      ----- ------------  ---------------
    47      0.201074   6 C  px               66      0.201074   8 C  px        
     9     -0.167010   2 C  px               28     -0.167010   4 C  px        
   123     -0.167010  14 C  px              142     -0.167010  16 C  px        

 Vector   22  Occ=1.000000D+00  E=-5.123446D-01  Symmetry=a1
              MO Center=  6.1D-14, -1.1D-15,  3.0D-01, r^2= 2.9D+00
   Bfn.  Coefficient  Atom+Function         Bfn.  Coefficient  Atom+Function  
  ----- ------------  ---------------      ----- ------------  ---------------
    87      0.220178  10 C  pz              106      0.220178  12 C  pz        
    10     -0.162592   2 C  py               29      0.162592   4 C  py        
   124     -0.162592  14 C  py              143      0.162592  16 C  py        

 Vector   23  Occ=1.000000D+00  E=-4.336752D-01  Symmetry=b1
              MO Center= -4.7D-14, -1.7D-14,  3.2D-02, r^2= 2.9D+00
   Bfn.  Coefficient  Atom+Function         Bfn.  Coefficient  Atom+Function  
  ----- ------------  ---------------      ----- ------------  ---------------
    10      0.242507   2 C  py               29     -0.242507   4 C  py        
   124     -0.242507  14 C  py              143      0.242507  16 C  py        
    85      0.178102  10 C  px              104      0.178102  12 C  px        

 Vector   24  Occ=1.000000D+00  E=-4.287043D-01  Symmetry=a2
              MO Center=  1.5D-15,  1.8D-14, -4.0D-01, r^2= 3.6D+00
   Bfn.  Coefficient  Atom+Function         Bfn.  Coefficient  Atom+Function  
  ----- ------------  ---------------      ----- ------------  ---------------
    47      0.275559   6 C  px               66     -0.275559   8 C  px        
     9      0.171664   2 C  px               28     -0.171664   4 C  px        
   123      0.171664  14 C  px              142     -0.171664  16 C  px        
    11      0.150711   2 C  pz               30     -0.150711   4 C  pz        
   125     -0.150711  14 C  pz              144      0.150711  16 C  pz        

 Vector   25  Occ=1.000000D+00  E=-4.115661D-01  Symmetry=b2
              MO Center= -4.5D-16,  1.3D-16,  1.9D-01, r^2= 3.6D+00
   Bfn.  Coefficient  Atom+Function         Bfn.  Coefficient  Atom+Function  
  ----- ------------  ---------------      ----- ------------  ---------------
    87      0.237320  10 C  pz              106     -0.237320  12 C  pz        
    11      0.192929   2 C  pz               30     -0.192929   4 C  pz        
   125      0.192929  14 C  pz              144     -0.192929  16 C  pz        
    77      0.175392   9 H  s                96     -0.175392  11 H  s         
    48      0.169455   6 C  py               67      0.169455   8 C  py        

 Vector   26  Occ=1.000000D+00  E=-3.950066D-01  Symmetry=a1
              MO Center= -4.9D-14,  2.3D-15,  3.5D-01, r^2= 3.3D+00
   Bfn.  Coefficient  Atom+Function         Bfn.  Coefficient  Atom+Function  
  ----- ------------  ---------------      ----- ------------  ---------------
    86      0.286439  10 C  py              105     -0.286439  12 C  py        
    10      0.185005   2 C  py               29     -0.185005   4 C  py        
   124      0.185005  14 C  py              143     -0.185005  16 C  py        
    89      0.181526  10 C  py              108     -0.181526  12 C  py        

 Vector   27  Occ=1.000000D+00  E=-3.752486D-01  Symmetry=a2
              MO Center=  1.8D-15, -7.4D-16,  4.4D-01, r^2= 2.9D+00
   Bfn.  Coefficient  Atom+Function         Bfn.  Coefficient  Atom+Function  
  ----- ------------  ---------------      ----- ------------  ---------------
    85      0.297452  10 C  px              104     -0.297452  12 C  px        
    88      0.200717  10 C  px              107     -0.200717  12 C  px        
    11     -0.170917   2 C  pz               30      0.170917   4 C  pz        
   125      0.170917  14 C  pz              144     -0.170917  16 C  pz        
     9      0.153189   2 C  px               28     -0.153189   4 C  px        

 Vector   28  Occ=0.000000D+00  E= 1.463436D-01  Symmetry=a1
              MO Center=  6.7D-14, -8.5D-18, -9.7D-01, r^2= 4.1D+00
   Bfn.  Coefficient  Atom+Function         Bfn.  Coefficient  Atom+Function  
  ----- ------------  ---------------      ----- ------------  ---------------
    52      0.501900   6 C  pz               71      0.501900   8 C  pz        
     2     -0.286414   1 H  s                21     -0.286414   3 H  s         
   116     -0.286414  13 H  s               135     -0.286414  15 H  s         
    84     -0.253575  10 C  s               103     -0.253575  12 C  s         
    49      0.200286   6 C  pz               68      0.200286   8 C  pz        

 Vector   29  Occ=0.000000D+00  E= 1.470696D-01  Symmetry=b2
              MO Center= -3.3D-16,  9.4D-15, -4.7D-01, r^2= 4.6D+00
   Bfn.  Coefficient  Atom+Function         Bfn.  Coefficient  Atom+Function  
  ----- ------------  ---------------      ----- ------------  ---------------
     8      0.795261   2 C  s                27     -0.795261   4 C  s         
   122      0.795261  14 C  s               141     -0.795261  16 C  s         
    52      0.545821   6 C  pz               71     -0.545821   8 C  pz        
    78      0.376655   9 H  s                97     -0.376655  11 H  s         
    13     -0.333984   2 C  py               32     -0.333984   4 C  py        

 Vector   30  Occ=0.000000D+00  E= 1.821634D-01  Symmetry=a1
              MO Center=  7.2D-16, -5.4D-16,  4.5D-01, r^2= 9.9D+00
   Bfn.  Coefficient  Atom+Function         Bfn.  Coefficient  Atom+Function  
  ----- ------------  ---------------      ----- ------------  ---------------
    78      0.778199   9 H  s                97      0.778199  11 H  s         
     2      0.678602   1 H  s                21      0.678602   3 H  s         
   116      0.678602  13 H  s               135      0.678602  15 H  s         
    84     -0.633805  10 C  s               103     -0.633805  12 C  s         
     8     -0.514373   2 C  s                27     -0.514373   4 C  s         

 Vector   31  Occ=0.000000D+00  E= 2.119874D-01  Symmetry=b1
              MO Center= -3.6D-14, -8.2D-17,  1.2D-01, r^2= 9.1D+00
   Bfn.  Coefficient  Atom+Function         Bfn.  Coefficient  Atom+Function  
  ----- ------------  ---------------      ----- ------------  ---------------
     8     -0.957601   2 C  s                27     -0.957601   4 C  s         
   122      0.957601  14 C  s               141      0.957601  16 C  s         
     2      0.913037   1 H  s                21      0.913037   3 H  s         
   116     -0.913037  13 H  s               135     -0.913037  15 H  s         
    88      0.378114  10 C  px              107      0.378114  12 C  px        

 Vector   32  Occ=0.000000D+00  E= 2.225469D-01  Symmetry=a1
              MO Center= -6.6D-14,  9.5D-14,  3.4D-01, r^2= 8.1D+00
   Bfn.  Coefficient  Atom+Function         Bfn.  Coefficient  Atom+Function  
  ----- ------------  ---------------      ----- ------------  ---------------
    84      1.164730  10 C  s               103      1.164730  12 C  s         
    46     -0.998199   6 C  s                65     -0.998199   8 C  s         
    78     -0.791212   9 H  s                97     -0.791212  11 H  s         
    40      0.690387   5 H  s                59      0.690387   7 H  s         
    14     -0.383118   2 C  pz               33     -0.383118   4 C  pz        

 Vector   33  Occ=0.000000D+00  E= 2.260076D-01  Symmetry=b2
              MO Center=  1.3D-13,  3.9D-14, -3.2D-01, r^2= 1.2D+01
   Bfn.  Coefficient  Atom+Function         Bfn.  Coefficient  Atom+Function  
  ----- ------------  ---------------      ----- ------------  ---------------
    40      1.138813   5 H  s                59     -1.138813   7 H  s         
    78      0.851744   9 H  s                97     -0.851744  11 H  s         
    46     -0.707230   6 C  s                65      0.707230   8 C  s         
    51      0.638607   6 C  py               70      0.638607   8 C  py        
     8      0.613035   2 C  s                27     -0.613035   4 C  s         

 Vector   34  Occ=0.000000D+00  E= 2.549022D-01  Symmetry=a2
              MO Center= -1.5D-13,  3.4D-16,  1.8D-02, r^2= 1.1D+01
   Bfn.  Coefficient  Atom+Function         Bfn.  Coefficient  Atom+Function  
  ----- ------------  ---------------      ----- ------------  ---------------
     2      1.294925   1 H  s                21     -1.294925   3 H  s         
   116     -1.294925  13 H  s               135      1.294925  15 H  s         
    12     -0.829911   2 C  px               31      0.829911   4 C  px        
   126     -0.829911  14 C  px              145      0.829911  16 C  px        
     8     -0.820750   2 C  s                27      0.820750   4 C  s         

 Vector   35  Occ=0.000000D+00  E= 2.565561D-01  Symmetry=b2
              MO Center= -2.4D-15, -4.5D-13,  8.9D-01, r^2= 1.1D+01
   Bfn.  Coefficient  Atom+Function         Bfn.  Coefficient  Atom+Function  
  ----- ------------  ---------------      ----- ------------  ---------------
    78      1.574219   9 H  s                97     -1.574219  11 H  s         
    40     -1.029900   5 H  s                59      1.029900   7 H  s         
    90     -1.019019  10 C  pz              109      1.019019  12 C  pz        
    46      0.766679   6 C  s                65     -0.766679   8 C  s         
    89      0.768235  10 C  py              108      0.768235  12 C  py        

 Vector   36  Occ=0.000000D+00  E= 2.589018D-01  Symmetry=a1
              MO Center=  4.2D-15, -5.1D-14,  4.3D-01, r^2= 1.1D+01
   Bfn.  Coefficient  Atom+Function         Bfn.  Coefficient  Atom+Function  
  ----- ------------  ---------------      ----- ------------  ---------------
    78      1.121319   9 H  s                97      1.121319  11 H  s         
     2     -0.803516   1 H  s                21     -0.803516   3 H  s         
   116     -0.803516  13 H  s               135     -0.803516  15 H  s         
    40      0.794773   5 H  s                59      0.794773   7 H  s         
    90     -0.736125  10 C  pz              109     -0.736125  12 C  pz        

 Vector   37  Occ=0.000000D+00  E= 2.741429D-01  Symmetry=b2
              MO Center=  1.3D-15,  1.8D-14,  3.5D-02, r^2= 1.2D+01
   Bfn.  Coefficient  Atom+Function         Bfn.  Coefficient  Atom+Function  
  ----- ------------  ---------------      ----- ------------  ---------------
     2      1.344136   1 H  s                21     -1.344136   3 H  s         
   116      1.344136  13 H  s               135     -1.344136  15 H  s         
    12     -1.254425   2 C  px               31      1.254425   4 C  px        
   126      1.254425  14 C  px              145     -1.254425  16 C  px        
[...]
   19 Stretch                 15    16                       1.09999   -0.00076
   20 Bend                     1     2     4               115.79025   -0.21357
   21 Bend                     1     2     8               121.37025    0.08716
   22 Bend                     1     2    12               124.34577   -0.03084
   23 Bend                     2     4     3               115.79025   -0.21357
   24 Bend                     2     4     6               111.61274    0.28169
   25 Bend                     2     4    10                89.35517    0.09554
   26 Bend                     2     8     7               123.65143   -1.33018
   27 Bend                     2     8    14                90.82421    0.22900
   28 Bend                     2    12    10                90.64483   -0.09554
   29 Bend                     2    12    11               124.12964   -0.08509
   30 Bend                     2    12    14                85.64598   -0.13721
   31 Bend                     3     4     6               121.37025    0.08716
   32 Bend                     3     4    10               124.34577   -0.03084
   33 Bend                     4     2     8               111.61274    0.28169
   34 Bend                     4     2    12                89.35517    0.09554
   35 Bend                     4     6     5               123.65143   -1.33018
   36 Bend                     4     6    16                90.82421    0.22900
   37 Bend                     4    10     9               124.12964   -0.08509
   38 Bend                     4    10    12                90.64483   -0.09554
   39 Bend                     4    10    16                85.64598   -0.13721
   40 Bend                     5     6    16               123.65143   -1.33018
   41 Bend                     6     4    10                87.61156   -0.20917
   42 Bend                     6    16    10                87.61156   -0.20917
   43 Bend                     6    16    14               111.61274    0.28169
   44 Bend                     6    16    15               121.37025    0.08716
   45 Bend                     7     8    14               123.65143   -1.33018
   46 Bend                     8     2    12                87.61156   -0.20917
   47 Bend                     8    14    12                87.61156   -0.20917
   48 Bend                     8    14    13               121.37025    0.08716
   49 Bend                     8    14    16               111.61274    0.28169
   50 Bend                     9    10    12               129.21715    0.35675
   51 Bend                     9    10    16               124.12964   -0.08509
   52 Bend                    10    12    11               129.21715    0.35675
   53 Bend                    10    12    14                90.64483   -0.09554
   54 Bend                    10    16    14                89.35517    0.09554
   55 Bend                    10    16    15               124.34577   -0.03084
   56 Bend                    11    12    14               124.12964   -0.08509
   57 Bend                    12    10    16                90.64483   -0.09554
   58 Bend                    12    14    13               124.34577   -0.03084
   59 Bend                    12    14    16                89.35517    0.09554
   60 Bend                    13    14    16               115.79025   -0.21357
   61 Bend                    14    16    15               115.79025   -0.21357
   62 Torsion                  1     2     4     3           0.00000    0.00000
   63 Torsion                  1     2     4     6        -144.42123   -0.25269
   64 Torsion                  1     2     4    10         128.40388   -0.05682
   65 Torsion                  1     2     8     7         -19.06531   -2.82050
   66 Torsion                  1     2     8    14        -151.54578   -0.30665
   67 Torsion                  1     2    12    10        -121.28504    0.20926
   68 Torsion                  1     2    12    11          19.20280    0.55958
   69 Torsion                  1     2    12    14         148.11732    0.29948
   70 Torsion                  2     4     6     5         161.21817    2.97231
   71 Torsion                  2     4     6    16         -66.30137    0.45846
   72 Torsion                  2     4    10     9        -140.48784   -0.35032
   73 Torsion                  2     4    10    12           0.00000    0.00000
   74 Torsion                  2     4    10    16          90.59764   -0.09021
   75 Torsion                  2     8    14    12          22.05741    0.46428
   76 Torsion                  2     8    14    13         151.54578    0.30665
   77 Torsion                  2     8    14    16         -66.30137    0.45846
   78 Torsion                  2    12    10     4           0.00000    0.00000
   79 Torsion                  2    12    10     9         137.17365    0.06969
   80 Torsion                  2    12    10    16         -85.65271    0.13937
   81 Torsion                  2    12    14     8         -21.06522   -0.37370
   82 Torsion                  2    12    14    13        -148.11732   -0.29948
   83 Torsion                  2    12    14    16          90.59764   -0.09021
   84 Torsion                  3     4     2     8         144.42123    0.25269
   85 Torsion                  3     4     2    12        -128.40388    0.05682
   86 Torsion                  3     4     6     5          19.06531    2.82050
   87 Torsion                  3     4     6    16         151.54578    0.30665
   88 Torsion                  3     4    10     9         -19.20280   -0.55958
   89 Torsion                  3     4    10    12         121.28504   -0.20926
   90 Torsion                  3     4    10    16        -148.11732   -0.29948
   91 Torsion                  4     2     8     7        -161.21817   -2.97231
   92 Torsion                  4     2     8    14          66.30137   -0.45846
   93 Torsion                  4     2    12    10           0.00000    0.00000
   94 Torsion                  4     2    12    11         140.48784    0.35032
   95 Torsion                  4     2    12    14         -90.59764    0.09021
   96 Torsion                  4     6    16    10         -22.05741   -0.46428
   97 Torsion                  4     6    16    14          66.30137   -0.45846
   98 Torsion                  4     6    16    15        -151.54578   -0.30665
   99 Torsion                  4    10    12    11        -137.17365   -0.06969
  100 Torsion                  4    10    12    14          85.65271   -0.13937
  101 Torsion                  4    10    16     6          21.06522    0.37370
  102 Torsion                  4    10    16    14         -90.59764    0.09021
  103 Torsion                  4    10    16    15         148.11732    0.29948
  104 Torsion                  5     6     4    10        -110.42306    2.97813
  105 Torsion                  5     6    16    10         110.42306   -2.97813
  106 Torsion                  5     6    16    14        -161.21817   -2.97231
  107 Torsion                  5     6    16    15         -19.06531   -2.82050
  108 Torsion                  6     4     2     8           0.00000    0.00000
  109 Torsion                  6     4     2    12          87.17489   -0.19587
  110 Torsion                  6     4    10     9         107.84930   -0.63381
  111 Torsion                  6     4    10    12        -111.66286   -0.28349
  112 Torsion                  6     4    10    16         -21.06522   -0.37370
  113 Torsion                  6    16    10     9        -107.84930    0.63381
  114 Torsion                  6    16    10    12         111.66286    0.28349
  115 Torsion                  6    16    14     8           0.00000    0.00000
  116 Torsion                  6    16    14    12         -87.17489    0.19587
  117 Torsion                  6    16    14    13         144.42123    0.25269
  118 Torsion                  7     8     2    12         110.42306   -2.97813
  119 Torsion                  7     8    14    12        -110.42306    2.97813
  120 Torsion                  7     8    14    13          19.06531    2.82050
  121 Torsion                  7     8    14    16         161.21817    2.97231
  122 Torsion                  8     2     4    10         -87.17489    0.19587
  123 Torsion                  8     2    12    10         111.66286    0.28349
  124 Torsion                  8     2    12    11        -107.84930    0.63381
  125 Torsion                  8     2    12    14          21.06522    0.37370
  126 Torsion                  8    14    12    10        -111.66286   -0.28349
  127 Torsion                  8    14    12    11         107.84930   -0.63381
  128 Torsion                  8    14    16    10          87.17489   -0.19587
  129 Torsion                  8    14    16    15        -144.42123   -0.25269
  130 Torsion                  9    10    12    11           0.00000    0.00000
  131 Torsion                  9    10    12    14        -137.17365   -0.06969
  132 Torsion                  9    10    16    14         140.48784    0.35032
  133 Torsion                  9    10    16    15          19.20280    0.55958
  134 Torsion                 10     4     2    12           0.00000    0.00000
  135 Torsion                 10     4     6    16          22.05741    0.46428
  136 Torsion                 10    12    14    13         121.28504   -0.20926
  137 Torsion                 10    12    14    16           0.00000    0.00000
  138 Torsion                 10    16    14    12           0.00000    0.00000
  139 Torsion                 10    16    14    13        -128.40388    0.05682
  140 Torsion                 11    12    10    16         137.17365    0.06969
  141 Torsion                 11    12    14    13         -19.20280   -0.55958
  142 Torsion                 11    12    14    16        -140.48784   -0.35032
  143 Torsion                 12     2     8    14         -22.05741   -0.46428
  144 Torsion                 12    10    16    14          -0.00000    0.00000
  145 Torsion                 12    10    16    15        -121.28504    0.20926
  146 Torsion                 12    14    16    15         128.40388   -0.05682
  147 Torsion                 13    14    16    15           0.00000    0.00000
  148 Torsion                 14    12    10    16           0.00000    0.00000

 ==============================================================================
                                internuclear distances
 ------------------------------------------------------------------------------
       center one      |      center two      | atomic units |  angstroms
 ------------------------------------------------------------------------------
    2 C                |   1 H                |     2.07868  |     1.09999
    4 C                |   2 C                |     3.01218  |     1.59398
    4 C                |   3 H                |     2.07868  |     1.09999
    6 C                |   4 C                |     2.86284  |     1.51495
    6 C                |   5 H                |     2.07078  |     1.09581
    8 C                |   2 C                |     2.86284  |     1.51495
    8 C                |   7 H                |     2.07078  |     1.09581
   10 C                |   4 C                |     2.99947  |     1.58725
   10 C                |   9 H                |     2.07927  |     1.10030
   12 C                |   2 C                |     2.99947  |     1.58725
   12 C                |  10 C                |     2.94467  |     1.55825
   12 C                |  11 H                |     2.07927  |     1.10030
   14 C                |   8 C                |     2.86284  |     1.51495
   14 C                |  12 C                |     2.99947  |     1.58725
   14 C                |  13 H                |     2.07868  |     1.09999
   16 C                |   6 C                |     2.86284  |     1.51495
   16 C                |  10 C                |     2.99947  |     1.58725
   16 C                |  14 C                |     3.01218  |     1.59398
   16 C                |  15 H                |     2.07868  |     1.09999
 ------------------------------------------------------------------------------
                         number of included internuclear distances:         19
 ==============================================================================



 ==============================================================================
                                 internuclear angles
 ------------------------------------------------------------------------------
        center 1       |       center 2       |       center 3       |  degrees
 ------------------------------------------------------------------------------
    1 H                |   2 C                |   4 C                |   115.79
    1 H                |   2 C                |   8 C                |   121.37
    1 H                |   2 C                |  12 C                |   124.35
    4 C                |   2 C                |   8 C                |   111.61
    4 C                |   2 C                |  12 C                |    89.36
    8 C                |   2 C                |  12 C                |    87.61
    2 C                |   4 C                |   3 H                |   115.79
    2 C                |   4 C                |   6 C                |   111.61
    2 C                |   4 C                |  10 C                |    89.36
    3 H                |   4 C                |   6 C                |   121.37
    3 H                |   4 C                |  10 C                |   124.35
    6 C                |   4 C                |  10 C                |    87.61
    4 C                |   6 C                |   5 H                |   123.65
    4 C                |   6 C                |  16 C                |    90.82
    5 H                |   6 C                |  16 C                |   123.65
    2 C                |   8 C                |   7 H                |   123.65
    2 C                |   8 C                |  14 C                |    90.82
    7 H                |   8 C                |  14 C                |   123.65
    4 C                |  10 C                |   9 H                |   124.13
    4 C                |  10 C                |  12 C                |    90.64
    4 C                |  10 C                |  16 C                |    85.65
    9 H                |  10 C                |  12 C                |   129.22
    9 H                |  10 C                |  16 C                |   124.13
   12 C                |  10 C                |  16 C                |    90.64
    2 C                |  12 C                |  10 C                |    90.64
    2 C                |  12 C                |  11 H                |   124.13
    2 C                |  12 C                |  14 C                |    85.65
   10 C                |  12 C                |  11 H                |   129.22
   10 C                |  12 C                |  14 C                |    90.64
   11 H                |  12 C                |  14 C                |   124.13
    8 C                |  14 C                |  12 C                |    87.61
    8 C                |  14 C                |  13 H                |   121.37
    8 C                |  14 C                |  16 C                |   111.61
   12 C                |  14 C                |  13 H                |   124.35
   12 C                |  14 C                |  16 C                |    89.36
   13 H                |  14 C                |  16 C                |   115.79
    6 C                |  16 C                |  10 C                |    87.61
    6 C                |  16 C                |  14 C                |   111.61
    6 C                |  16 C                |  15 H                |   121.37
   10 C                |  16 C                |  14 C                |    89.36
   10 C                |  16 C                |  15 H                |   124.35
   14 C                |  16 C                |  15 H                |   115.79
 ------------------------------------------------------------------------------
                            number of included internuclear angles:         42
 ==============================================================================




 Task  times  cpu:     3557.4s     wall:     2960.7s
 Summary of allocated global arrays
-----------------------------------
  No active global arrays



                         GA Statistics for process    0
                         ------------------------------

       create   destroy   get      put      acc     scatter   gather  read&inc
calls: 2.53e+04 2.53e+04 2.89e+07 4.19e+06 1.58e+07 3870        0     5.93e+05 
number of processes/call 1.00e+00 1.00e+00 1.00e+00 0.00e+00 0.00e+00
bytes total:             7.17e+09 2.91e+10 3.05e+09 2.85e+04 0.00e+00 4.74e+06
bytes remote:            0.00e+00 0.00e+00 0.00e+00 0.00e+00 0.00e+00 0.00e+00
Max memory consumed for GA by this process: 209711672 bytes
MA_summarize_allocated_blocks: starting scan ...
MA_summarize_allocated_blocks: scan completed: 0 heap blocks, 0 stack blocks
MA usage statistics:

	allocation statistics:
					      heap	     stack
					      ----	     -----
	current number of blocks	         0	         0
	maximum number of blocks	        25	        48
	current total bytes		         0	         0
	maximum total bytes		     80152	  26347928
	maximum total K-bytes		        81	     26348
	maximum total M-bytes		         1	        27


                                NWChem Input Module
                                -------------------





                                     CITATION
                                     --------
                Please cite the following reference when publishing
                           results obtained with NWChem:

                 M. Valiev, E.J. Bylaska, N. Govind, K. Kowalski,
              T.P. Straatsma, H.J.J. van Dam, D. Wang, J. Nieplocha,
                        E. Apra, T.L. Windus, W.A. de Jong
                 "NWChem: a comprehensive and scalable open-source
                  solution for large scale molecular simulations"
                      Comput. Phys. Commun. 181, 1477 (2010)
                           doi:10.1016/j.cpc.2010.04.018

                                      AUTHORS
                                      -------
          E. Apra, E. J. Bylaska, W. A. de Jong, N. Govind, K. Kowalski,
       T. P. Straatsma, M. Valiev, H. J. J. van Dam, D. Wang, T. L. Windus,
        J. Hammond, J. Autschbach, K. Bhaskaran-Nair, J. Brabec, K. Lopata,
    S. A. Fischer, S. Krishnamoorthy, M. Jacquelin, W. Ma, M. Klemm, O. Villa,
      Y. Chen, V. Anisimov, F. Aquino, S. Hirata, M. T. Hackler, V. Konjkov,
            D. Mejia-Rodriguez, T. Risthaus, M. Malagoli, A. Marenich,
   A. Otero-de-la-Roza, J. Mullin, P. Nichols, R. Peverati, J. Pittner, Y. Zhao,
        P.-D. Fan, A. Fonari, M. J. Williamson, R. J. Harrison, J. R. Rehr,
      M. Dupuis, D. Silverstein, D. M. A. Smith, J. Nieplocha, V. Tipparaju,
    M. Krishnan, B. E. Van Kuiken, A. Vazquez-Mayagoitia, L. Jensen, M. Swart,
      Q. Wu, T. Van Voorhis, A. A. Auer, M. Nooijen, L. D. Crosby, E. Brown,
      G. Cisneros, G. I. Fann, H. Fruchtl, J. Garza, K. Hirao, R. A. Kendall,
      J. A. Nichols, K. Tsemekhman, K. Wolinski, J. Anchell, D. E. Bernholdt,
      P. Borowski, T. Clark, D. Clerc, H. Dachsel, M. J. O. Deegan, K. Dyall,
    D. Elwood, E. Glendening, M. Gutowski, A. C. Hess, J. Jaffe, B. G. Johnson,
     J. Ju, R. Kobayashi, R. Kutteh, Z. Lin, R. Littlefield, X. Long, B. Meng,
      T. Nakajima, S. Niu, L. Pollack, M. Rosing, K. Glaesemann, G. Sandrone,
      M. Stave, H. Taylor, G. Thomas, J. H. van Lenthe, A. T. Wong, Z. Zhang.

 Total times  cpu:     3557.6s     wall:     2960.8s
