
Running Job 1 of 1 cubane.in
qchem cubane.in_9136.0 /tmp/qchem9136/ 1
/opt/qchem/exe/qcprog.exe_s cubane.in_9136.0 /tmp/qchem9136/
Check license passed

                  Welcome to Q-Chem
     A Quantum Leap Into The Future Of Chemistry


 Q-Chem 4.4, Q-Chem, Inc., Pleasanton, CA (2016)

 Y. Shao,  Z. Gan,  E. Epifanovsky,  A. T. B. Gilbert,  M. Wormit,  
 J. Kussmann,  A. W. Lange,  A. Behn,  J. Deng,  X. Feng,  D. Ghosh,  
 M. Goldey,  P. R. Horn,  L. D. Jacobson,  I. Kaliman,  F.Rob,  
 R. Z. Khaliullin,  T. Kus,  A. Landau,  J. Liu,  E. I. Proynov,  Y. M. Rhee,  
 R. M. Richard,  M. A. Rohrdanz,  R. P. Steele,  E. J. Sundstrom,  
 H. L. Woodcock III,  P. M. Zimmerman,  D. Zuev,  B. Albrecht,  E. Alguire,  
 B. Austin,  S. A. Baeppler,  G. J. O. Beran,  Y. A. Bernard,  E. Berquist,  
 K. Brandhorst,  K. B. Bravaya,  S. T. Brown,  D. Casanova,  C.-M. Chang,  
 Y. Chen,  S. H. Chien,  K. D. Closser,  M. P. Coons,  D. L. Crittenden,  
 S. Dasgupta,  M. Diedenhofen,  R. A. DiStasio Jr.,  H. Do,  A. D. Dutoi,  
 R. G. Edgar,  P.-T. Fang,  S. Fatehi,  Q. Feng,  L. Fusti-Molnar,  
 A. Ghysels,  A. Golubeva-Zadorozhnaya,  J. Gomes,  A. Gunina,  
 M. W. D. Hanson-Heine,  P. H. P. Harbach,  A. W. Hauser,  E. G. Hohenstein,  
 Z. C. Holden,  K. Hui,  T.-C. Jagau,  H. Ji,  B. Kaduk,  K. Khistyaev,  
 Jaehoon Kim,  Jihan Kim,  R. A. King,  P. Klunzinger,  D. Kosenkov,  
 T. Kowalczyk,  C. M. Krauter,  A. Kunitsa,  K. U. Lao,  A. Laurent,  
 K. V. Lawler,  D. Lefrancois,  S. Lehtola,  S. V. Levchenko,  C. Y. Lin,  
 Y.-S. Lin,  F. Liu,  E. Livshits,  R. C. Lochan,  A. Luenser,  P. Manohar,  
 S. F. Manzer,  S.-P. Mao,  Y. Mao,  N. Mardirossian,  A. V. Marenich,  
 L. A. Martinez-Martinez,  S. A. Maurer,  N. J. Mayhall,  J.-M. Mewes,  
 A. F. Morrison,  K. Nanda,  C. M. Oana,  R. Olivares-Amaya,  D. P. O'Neill,  
 J. A. Parkhill,  T. M. Perrine,  R. Peverati,  P. A. Pieniazek,  F. Plasser,  
 A. Prociuk,  D. R. Rehn,  E. Rosta,  N. J. Russ,  N. Sergueev,  
 S. M. Sharada,  S. Sharma,  D. W. Small,  A. Sodt,  T. Stauch,  T. Stein,  
 D. Stuck,  Y.-C. Su,  A. J. W. Thom,  T. Tsuchimochi,  L. Vogt,  O. Vydrov,  
 T. Wang,  M. A. Watson,  J. Wenzel,  A. White,  C. F. Williams,  
 V. Vanovschi,  S. Yeganeh,  S. R. Yost,  Z.-Q. You,  I. Y. Zhang,  X. Zhang,  
 Y. Zhao,  B. R. Brooks,  G. K. L. Chan,  D. M. Chipman,  C. J. Cramer,  
 W. A. Goddard III,  M. S. Gordon,  W. J. Hehre,  A. Klamt,  
 H. F. Schaefer III,  M. W. Schmidt,  C. D. Sherrill,  D. G. Truhlar,  
 A. Warshel,  X. Xu,  A. Aspuru-Guzik,  R. Baer,  A. T. Bell,  N. A. Besley,  
 J.-D. Chai,  A. Dreuw,  B. D. Dunietz,  T. R. Furlani,  S. R. Gwaltney,  
 C.-P. Hsu,  Y. Jung,  J. Kong,  D. S. Lambrecht,  W. Liang,  C. Ochsenfeld,  
 V. A. Rassolov,  L. V. Slipchenko,  J. E. Subotnik,  T. Van Voorhis,  
 J. M. Herbert,  A. I. Krylov,  P. M. W. Gill,  M. Head-Gordon

 Contributors to earlier versions of Q-Chem not listed above: 
 R. D. Adamson,  J. Baker,  E. F. C. Byrd,  A. K. Chakraborty,  C.-L. Cheng,  
 H. Dachsel,  R. J. Doerksen,  G. Hawkins,  A. Heyden,  S. Hirata,  
 G. Kedziora,  F. J. Keil,  C. Kelley,  P. P. Korambath,  W. Kurlancheek,  
 A. M. Lee,  M. S. Lee,  D. Liotard,  I. Lotan,  P. E. Maslen,  N. Nair,  
 D. Neuhauser,  R. Olson,  B. Peters,  J. Ritchie,  N. E. Schultz,  
 N. Shenvi,  A. C. Simmonett,  K. S. Thanthiriwatte,  Q. Wu,  W. Zhang

 Please cite Q-Chem as follows:
 Y. Shao et al., Mol. Phys. 113, 184-215 (2015)
 DOI: 10.1080/00268976.2014.952696

 Q-Chem 4.4.1 for Intel X86 Linux

 Parts of Q-Chem use Armadillo 5.200.1 (Boston Tea Smuggler).
 http://arma.sourceforge.net/

 Q-Chem begins on Wed Dec 24 08:15:44 2008  

Host: 
0

     Scratch files written to /tmp/qchem9136//
 Oct2916 21813_ 22044  22042 5911   
Processing $rem in /opt/qchem/config/preferences.
 MEM_TOTAL  2000 

Checking the input file for inconsistencies... 	...done.

--------------------------------------------------------------
User input:
--------------------------------------------------------------
$comment0
$end

$rem
SYMMETRY              True
BASIS                 cc-pVDZ
METHOD                CCSD
N_FROZEN_CORE         FC
SCF_CONVERGENCE       8
JOBTYPE               opt
$end

$molecule
0 1
H                     1.42503470     1.42503470     1.42503472
H                    -1.42503470    -1.42503470     1.42503472
H                    -1.42503470     1.42503470    -1.42503472
H                     1.42503470    -1.42503470    -1.42503472
H                    -1.42503470    -1.42503470    -1.42503472
H                     1.42503470     1.42503470    -1.42503472
H                     1.42503470    -1.42503470     1.42503472
H                    -1.42503470     1.42503470     1.42503472
C                     0.78961438     0.78961438     0.78961439
C                    -0.78961438    -0.78961438     0.78961439
C                    -0.78961438     0.78961438    -0.78961439
C                     0.78961438    -0.78961438    -0.78961439
C                    -0.78961438    -0.78961438    -0.78961439
C                     0.78961438     0.78961438    -0.78961439
C                     0.78961438    -0.78961438     0.78961439
C                    -0.78961438     0.78961438     0.78961439
$end
--------------------------------------------------------------
 ----------------------------------------------------------------
             Standard Nuclear Orientation (Angstroms)
    I     Atom           X                Y                Z
 ----------------------------------------------------------------
    1      H       1.4250347200     1.4250347000     1.4250347000
    2      H       1.4250347200    -1.4250347000    -1.4250347000
    3      H      -1.4250347200    -1.4250347000     1.4250347000
    4      H      -1.4250347200     1.4250347000    -1.4250347000
    5      H      -1.4250347200    -1.4250347000    -1.4250347000
    6      H      -1.4250347200     1.4250347000     1.4250347000
    7      H       1.4250347200     1.4250347000    -1.4250347000
    8      H       1.4250347200    -1.4250347000     1.4250347000
    9      C       0.7896143900     0.7896143800     0.7896143800
   10      C       0.7896143900    -0.7896143800    -0.7896143800
   11      C      -0.7896143900    -0.7896143800     0.7896143800
   12      C      -0.7896143900     0.7896143800    -0.7896143800
   13      C      -0.7896143900    -0.7896143800    -0.7896143800
   14      C      -0.7896143900     0.7896143800     0.7896143800
   15      C       0.7896143900     0.7896143800    -0.7896143800
   16      C       0.7896143900    -0.7896143800     0.7896143800
 ----------------------------------------------------------------
 Molecular Point Group                 D2h   NOp =  8
 Largest Abelian Subgroup              D2h   NOp =  8
 Nuclear Repulsion Energy =   364.6351983506 hartrees
 There are       28 alpha and       28 beta electrons
 Requested basis set is cc-pVDZ
 There are 72 shells and 152 basis functions
 Total memory of 6341MB is distributed as follows: 
   QALLOC including MEM_STATIC uses 1062MB
   MEM_STATIC is set to 62MB
   CCMAN JOB total memory use is  6279MB
 Warning: actual memory use might exceed 6341MB

 Total QAlloc Memory Limit   1062 MB
 Mega-Array Size        61 MB
 MEM_STATIC part        62 MB
 A cutoff of  1.0D-14 yielded   2624 shell pairs
 There are     11776 function pairs (     13068 Cartesian)
 
 -------------------------------------------------------
 OpenMP Integral Computing Module                       
 Release: version 1.0, May 2013, Q-Chem Inc. Pittsburgh 
 -------------------------------------------------------
 Integral Job Info:
 Integral job number is                      11
 Integral operator is                         1
 short-range coefficients                     0
 long-range coefficients              100000000
 Omega coefficients                           0
 if combine SR and LR in K                    0
 Integral screening is                        0
 Integral computing path is                   2
 max size of driver memory is            800000
 size of driver memory is                593474
 size of scratch memory is              3179904
 max col of scratch BK array               1296
 max len of scratch array in speh3          155
 max len of scratch index in speh4           18
 max int batch size is                      520
 min int batch size is                       52
 fixed nKL is                                52
 max L of basis functions is                  2
 order of int derivative is                   0
 number of shells is                         72
 number of basis is                         160
 number of cartesian basis is               160
 number of contracted shell pairs          2624
 number of primitive shell pairs          13360
 maxK2 (contraction) of shell pair           49
 max number of K2 of shell pair               1
 max number of CS2 of shell pair            296
 max number of PS2 of shell pair           2072
 mem total for path MDJ                   73418
 -------------------------------------------------------
 Smallest overlap matrix eigenvalue = 1.85E-04

 Scale SEOQF with 1.000000e+00/1.000000e+00/1.000000e+00

 Standard Electronic Orientation quadrupole field applied
 Guess from superposition of atomic densities
 Warning:  Energy on first SCF cycle will be non-variational
 A restricted Hartree-Fock SCF calculation will be
 performed using Pulay DIIS extrapolation
 SCF converges when DIIS error is below 1.0E-08
 using 4 threads for integral computing 
 ---------------------------------------
  Cycle       Energy         DIIS Error
 ---------------------------------------
    1    -311.6096858064      7.24E-02
    2    -286.8839705864      4.26E-02
    3    -303.2021009809      3.44E-02
    4    -307.1583709735      8.53E-03
    5    -307.4029913636      1.47E-03
    6    -307.4118298051      2.65E-04
    7    -307.4123523251      7.57E-05
    8    -307.4123851430      1.53E-05
    9    -307.4123872951      3.78E-06
   10    -307.4123874000      1.18E-06
   11    -307.4123874135      1.72E-07
   12    -307.4123874138      3.74E-08
   13    -307.4123874138      7.45E-09 Convergence criterion met
 ---------------------------------------
 SCF time:  CPU 6.88 s  wall 2.24 s
 SCF   energy in the final basis set = -307.4123874138
 Total energy in the final basis set = -307.4123874138


 ------------------------------------------------------------------------------

   CCMAN2: suite of methods based on coupled cluster
           and equation of motion theories.

   Components:
   * libvmm-1.3-trunk
     by Evgeny Epifanovsky, Ilya Kaliman.
   * libtensor-2.5-release
     by Evgeny Epifanovsky, Michael Wormit, Dmitry Zuev, Sam Manzer, 
        Ilya Kaliman.
   * libcc-2.5-trunk
     by Evgeny Epifanovsky, Arik Landau, Tomasz Kus, Kirill Khistyaev, 
        Dmitry Zuev, Prashant Manohar, Xintian Feng, Anna Krylov, 
        Matthew Goldey, Alec White, Thomas Jagau, Kaushik Nanda, 
        Anastasia Gunina, Alexander Kunitsa, Joonho Lee.

   CCMAN original authors:
   Anna I. Krylov, C. David Sherrill, Steven R. Gwaltney,
   Edward F. C. Byrd (2000)
   Sergey V. Levchenko, Lyudmila V. Slipchenko, Tao Wang,
   Ana-Maria C. Cristian (2003)
   Piotr A. Pieniazek, C. Melania Oana, Evgeny Epifanovsky (2007)
   Prashant Manohar (2009)

 ------------------------------------------------------------------------------


 Calculation will run on 4 cores with 6279MB of RAM.

 
 Alpha MOs, Restricted
 -- Occupied --                  
-11.230 -11.230 -11.230 -11.230 -11.229 -11.229 -11.229 -11.229
  1 Ag    1 B1u   1 B3u   1 B2u   1 B2g   1 B3g   1 B1g   1 Au                 
 -1.238  -0.975  -0.975  -0.975  -0.766  -0.766  -0.766  -0.704
  2 Ag    2 B1u   2 B3u   2 B2u   2 B2g   2 B3g   2 B1g   3 Ag                 
 -0.639  -0.576  -0.576  -0.576  -0.574  -0.574  -0.389  -0.389
  2 Au    3 B1u   3 B3u   3 B2u   4 Ag    5 Ag    4 B1u   4 B3u                
 -0.389  -0.384  -0.384  -0.384
  4 B2u   3 B2g   3 B3g   3 B1g                                                
 -- Virtual --                   
  0.182   0.203   0.203   0.203   0.253   0.253   0.253   0.257
  6 Ag    5 B1u   5 B3u   5 B2u   4 B2g   4 B3g   4 B1g   6 B1u                
  0.257   0.257   0.264   0.368   0.368   0.368   0.447   0.447
  6 B3u   6 B2u   3 Au    5 B2g   5 B3g   5 B1g   6 B2g   6 B3g                
  0.447   0.494   0.519   0.519   0.617   0.617   0.668   0.668
  6 B1g   7 Ag    4 Au    5 Au    8 Ag    9 Ag    7 B1u   7 B3u                
  0.668   0.682   0.682   0.682   0.690   0.788   0.788   0.788
  7 B2u   8 B2u   8 B3u   8 B1u   6 Au    9 B1u   9 B3u   9 B2u                
  0.800   0.800   0.800   0.864   0.864   0.864   0.875   0.875
  7 B2g   7 B3g   7 B1g   8 B2g   8 B3g   8 B1g   9 B2g   9 B3g                
  0.875   0.918   0.944   0.944   0.947   0.947   0.997   0.997
  9 B1g  10 Ag    7 Au    8 Au   11 Ag   12 Ag   10 B2u  10 B3u                
  0.997   1.039   1.257   1.257   1.257   1.282   1.282   1.282
 10 B1u   9 Au   11 B2u  11 B3u  11 B1u  10 B1g  10 B3g  10 B2g                
  1.329   1.349   1.582   1.582   1.582   1.610   1.610   1.610
 13 Ag   10 Au   11 B2g  11 B3g  11 B1g  12 B1u  12 B3u  12 B2u                
  1.633   1.633   1.709   1.709   1.709   1.764   1.764   1.764
 14 Ag   15 Ag   13 B1u  13 B3u  13 B2u  14 B2u  14 B3u  14 B1u                
  1.875   1.875   1.875   1.932   1.932   1.932   1.962   1.962
 12 B2g  12 B3g  12 B1g  15 B1u  15 B3u  15 B2u  16 Ag   17 Ag                 
  1.967   1.974   1.974   1.974   2.082   2.082   2.170   2.170
 18 Ag   13 B1g  13 B3g  13 B2g  11 Au   12 Au   14 B2g  14 B3g                
  2.170   2.194   2.194   2.194   2.203   2.203   2.203   2.268
 14 B1g  16 B2u  16 B3u  16 B1u  15 B2g  15 B3g  15 B1g  17 B1u                
  2.268   2.268   2.348   2.348   2.348   2.376   2.392   2.392
 17 B3u  17 B2u  16 B2g  16 B3g  16 B1g  13 Au   18 B1u  18 B3u                
  2.392   2.446   2.446   2.562   2.562   2.562   2.705   2.770
 18 B2u  14 Au   15 Au   17 B2g  17 B3g  17 B1g  19 Ag   19 B1u                
  2.770   2.770   2.805   2.805   2.835   2.835   2.835   3.150
 19 B3u  19 B2u  16 Au   17 Au   18 B2g  18 B3g  18 B1g  18 Au                 
  3.399   3.399   3.399   4.285
 19 B2g  19 B3g  19 B1g  19 Au                                                 
 
 Beta MOs, Restricted
 -- Occupied --                  
-11.230 -11.230 -11.230 -11.230 -11.229 -11.229 -11.229 -11.229
  1 Ag    1 B1u   1 B3u   1 B2u   1 B2g   1 B3g   1 B1g   1 Au                 
 -1.238  -0.975  -0.975  -0.975  -0.766  -0.766  -0.766  -0.704
  2 Ag    2 B1u   2 B3u   2 B2u   2 B2g   2 B3g   2 B1g   3 Ag                 
 -0.639  -0.576  -0.576  -0.576  -0.574  -0.574  -0.389  -0.389
  2 Au    3 B1u   3 B3u   3 B2u   4 Ag    5 Ag    4 B1u   4 B3u                
 -0.389  -0.384  -0.384  -0.384
  4 B2u   3 B2g   3 B3g   3 B1g                                                
 -- Virtual --                   
  0.182   0.203   0.203   0.203   0.253   0.253   0.253   0.257
  6 Ag    5 B1u   5 B3u   5 B2u   4 B2g   4 B3g   4 B1g   6 B1u                
  0.257   0.257   0.264   0.368   0.368   0.368   0.447   0.447
  6 B3u   6 B2u   3 Au    5 B2g   5 B3g   5 B1g   6 B2g   6 B3g                
  0.447   0.494   0.519   0.519   0.617   0.617   0.668   0.668
  6 B1g   7 Ag    4 Au    5 Au    8 Ag    9 Ag    7 B1u   7 B3u                
  0.668   0.682   0.682   0.682   0.690   0.788   0.788   0.788
  7 B2u   8 B2u   8 B3u   8 B1u   6 Au    9 B1u   9 B3u   9 B2u                
  0.800   0.800   0.800   0.864   0.864   0.864   0.875   0.875
  7 B2g   7 B3g   7 B1g   8 B2g   8 B3g   8 B1g   9 B2g   9 B3g                
  0.875   0.918   0.944   0.944   0.947   0.947   0.997   0.997
  9 B1g  10 Ag    7 Au    8 Au   11 Ag   12 Ag   10 B2u  10 B3u                
  0.997   1.039   1.257   1.257   1.257   1.282   1.282   1.282
 10 B1u   9 Au   11 B2u  11 B3u  11 B1u  10 B1g  10 B3g  10 B2g                
  1.329   1.349   1.582   1.582   1.582   1.610   1.610   1.610
 13 Ag   10 Au   11 B2g  11 B3g  11 B1g  12 B1u  12 B3u  12 B2u                
  1.633   1.633   1.709   1.709   1.709   1.764   1.764   1.764
 14 Ag   15 Ag   13 B1u  13 B3u  13 B2u  14 B2u  14 B3u  14 B1u                
  1.875   1.875   1.875   1.932   1.932   1.932   1.962   1.962
 12 B2g  12 B3g  12 B1g  15 B1u  15 B3u  15 B2u  16 Ag   17 Ag                 
  1.967   1.974   1.974   1.974   2.082   2.082   2.170   2.170
 18 Ag   13 B1g  13 B3g  13 B2g  11 Au   12 Au   14 B2g  14 B3g                
  2.170   2.194   2.194   2.194   2.203   2.203   2.203   2.268
 14 B1g  16 B2u  16 B3u  16 B1u  15 B2g  15 B3g  15 B1g  17 B1u                
  2.268   2.268   2.348   2.348   2.348   2.376   2.392   2.392
 17 B3u  17 B2u  16 B2g  16 B3g  16 B1g  13 Au   18 B1u  18 B3u                
  2.392   2.446   2.446   2.562   2.562   2.562   2.705   2.770
 18 B2u  14 Au   15 Au   17 B2g  17 B3g  17 B1g  19 Ag   19 B1u                
  2.770   2.770   2.805   2.805   2.835   2.835   2.835   3.150
 19 B3u  19 B2u  16 Au   17 Au   18 B2g  18 B3g  18 B1g  18 Au                 
  3.399   3.399   3.399   4.285
 19 B2g  19 B3g  19 B1g  19 Au                                                 

 Occupation and symmetry of molecular orbitals

 Point group: D2h (8 irreducible representations).

                           Ag   B1g  B2g  B3g  Au   B1u  B2u  B3u   All 
 ------------------------------------------------------------------------
 All molecular orbitals:
  - Alpha                  19   19   19   19   19   19   19   19    152 
  - Beta                   19   19   19   19   19   19   19   19    152 
 ------------------------------------------------------------------------
 Alpha orbitals:
  - Frozen occupied        1    1    1    1    1    1    1    1     8   
  - Active occupied        4    2    2    2    1    3    3    3     20  
  - Active virtual         14   16   16   16   17   15   15   15    124 
  - Frozen virtual         0    0    0    0    0    0    0    0     0   
 ------------------------------------------------------------------------
 Beta orbitals:
  - Frozen occupied        1    1    1    1    1    1    1    1     8   
  - Active occupied        4    2    2    2    1    3    3    3     20  
  - Active virtual         14   16   16   16   17   15   15   15    124 
  - Frozen virtual         0    0    0    0    0    0    0    0     0   
 ------------------------------------------------------------------------

 Import integrals:   CPU 0.00 s  wall 0.00 s

 Import integrals:   CPU 68.92 s  wall 16.16 s

 MP2 amplitudes:   CPU 2.59 s  wall 1.62 s

           CCSD T amplitudes will be solved using DIIS.

           Start     Size      MaxIter   EConv     TConv     
           3         7         100       1.00e-07  1.00e-05  
 ------------------------------------------------------------------------------
           Energy (a.u.)   Ediff      Tdiff       Comment
 ------------------------------------------------------------------------------
          -308.48385001                           
     1    -308.50757900   2.37e-02   1.05e+00     
     2    -308.53554040   2.80e-02   1.34e-01     
     3    -308.53947531   3.93e-03   3.84e-02     
     4    -308.54252624   3.05e-03   1.68e-02     Switched to DIIS steps.
     5    -308.54307626   5.50e-04   6.06e-03     
     6    -308.54310423   2.80e-05   1.54e-03     
     7    -308.54310537   1.14e-06   4.28e-04     
     8    -308.54310607   7.08e-07   1.26e-04     
     9    -308.54310633   2.55e-07   2.83e-05     
    10    -308.54310640   6.97e-08   9.26e-06     
 ------------------------------------------------------------------------------
          -308.54310640                           CCSD T converged.

 SCF energy                 = -307.41238741
 MP2 energy                 = -308.48385001
 CCSD correlation energy     =   -1.13071898
 CCSD total energy           = -308.54310640

 CCSD  T1^2 = 0.0050  T2^2 = 0.4466  Leading amplitudes:

 Amplitude    Orbitals with energies
 -0.0136       3 (Ag) A                  ->    7 (Ag) A                    
              -0.7040                          0.4941                      
 -0.0136       3 (Ag) B                  ->    7 (Ag) B                    
              -0.7040                          0.4941                      
  0.0107       4 (B1u) A                 ->    12 (B1u) A                  
              -0.3891                          1.6103                      
  0.0107       4 (B1u) B                 ->    12 (B1u) B                  
              -0.3891                          1.6103                      
 -0.0107       4 (B2u) A                 ->    12 (B2u) A                  
              -0.3891                          1.6103                      
 -0.0107       4 (B2u) B                 ->    12 (B2u) B                  
              -0.3891                          1.6103                      
 -0.0107       4 (B3u) A                 ->    12 (B3u) A                  
              -0.3891                          1.6103                      
 -0.0107       4 (B3u) B                 ->    12 (B3u) B                  
              -0.3891                          1.6103                      

 Amplitude    Orbitals with energies
 -0.0151       4 (B2u) A     4 (B2u) B   ->    5 (B2g) A     5 (B2g) B    
              -0.3891       -0.3891            0.3684        0.3684       
  0.0151       4 (B2u) A     4 (B2u) B   ->    5 (B2g) B     5 (B2g) A    
              -0.3891       -0.3891            0.3684        0.3684       
  0.0151       4 (B2u) B     4 (B2u) A   ->    5 (B2g) A     5 (B2g) B    
              -0.3891       -0.3891            0.3684        0.3684       
 -0.0151       4 (B2u) B     4 (B2u) A   ->    5 (B2g) B     5 (B2g) A    
              -0.3891       -0.3891            0.3684        0.3684       
 -0.0151       4 (B1u) A     4 (B1u) B   ->    5 (B1g) A     5 (B1g) B    
              -0.3891       -0.3891            0.3684        0.3684       
  0.0151       4 (B1u) A     4 (B1u) B   ->    5 (B1g) B     5 (B1g) A    
              -0.3891       -0.3891            0.3684        0.3684       
  0.0151       4 (B1u) B     4 (B1u) A   ->    5 (B1g) A     5 (B1g) B    
              -0.3891       -0.3891            0.3684        0.3684       
 -0.0151       4 (B1u) B     4 (B1u) A   ->    5 (B1g) B     5 (B1g) A    
              -0.3891       -0.3891            0.3684        0.3684       
 -0.0151       4 (B3u) A     4 (B3u) B   ->    5 (B3g) A     5 (B3g) B    
              -0.3891       -0.3891            0.3684        0.3684       
  0.0151       4 (B3u) A     4 (B3u) B   ->    5 (B3g) B     5 (B3g) A    
              -0.3891       -0.3891            0.3684        0.3684       
  0.0151       4 (B3u) B     4 (B3u) A   ->    5 (B3g) A     5 (B3g) B    
              -0.3891       -0.3891            0.3684        0.3684       
 -0.0151       4 (B3u) B     4 (B3u) A   ->    5 (B3g) B     5 (B3g) A    
              -0.3891       -0.3891            0.3684        0.3684       

           CCSD Lambda amplitudes will be solved using DIIS.
           Start     Size      MaxIter   EConv     LConv     
           3         7         100       1.00e-07  1.00e-05  
 ------------------------------------------------------------------------------
            Enorm      Ldiff       Comment
 ------------------------------------------------------------------------------
     1     4.66e-02   4.14e-02     
     2     7.29e-03   2.71e-03     
     3     2.41e-03   1.47e-03     
     4     5.75e-04   4.45e-04     Switched to DIIS steps.
     5     1.77e-04   1.25e-04     
     6     3.70e-05   2.50e-05     
     7     1.07e-05   3.40e-06     
     8     2.85e-06   7.49e-07     
     9     8.86e-07   1.57e-07     
    10     2.91e-07   4.35e-08     
    11     8.74e-08   1.07e-08     
 ------------------------------------------------------------------------------
                                   CCSD Lambda converged.

           Orbital response amplitudes will be solved using DIIS.
           Start     Size      MaxIter   EConv     LConv     
           3         7         100       1.00e-06  1.00e-06  
 ------------------------------------------------------------------------------
            Enorm      Ldiff       Comment
 ------------------------------------------------------------------------------
     1     3.57e-02   1.28e-02     
     2     1.18e-02   8.45e-04     
     3     1.01e-02   2.95e-04     
     4     1.60e-03   8.74e-04     Switched to DIIS steps.
     5     1.27e-04   1.70e-05     
     6     7.15e-06   1.00e-05     
     7     9.52e-07   1.71e-07     
 ------------------------------------------------------------------------------
                                   Orbital response converged.

 CCSD calculation:   CPU 137.18 s  wall 38.23 s

 Total ccman2 time:   CPU 212.66 s  wall 57.27 s

 
 --------------------------------------------------------------
             Orbital Energies (a.u.) and Symmetries
 --------------------------------------------------------------
 
 Alpha MOs, Restricted
 -- Occupied --                  
-11.230 -11.229 -11.229 -11.229 -11.229 -11.230 -11.230 -11.230
  1 Ag    1 B1g   1 B2g   1 B3g   1 Au    1 B1u   1 B2u   1 B3u                
 -1.238  -0.704  -0.574  -0.574  -0.766  -0.384  -0.766  -0.384
  2 Ag    3 Ag    4 Ag    5 Ag    2 B1g   3 B1g   2 B2g   3 B2g                
 -0.766  -0.384  -0.639  -0.975  -0.576  -0.389  -0.975  -0.576
  2 B3g   3 B3g   2 Au    2 B1u   3 B1u   4 B1u   2 B2u   3 B2u                
 -0.389  -0.975  -0.576  -0.389
  4 B2u   2 B3u   3 B3u   4 B3u                                                
 -- Virtual --                   
  0.182   0.494   0.617   0.617   0.918   0.947   0.947   1.329
  6 Ag    7 Ag    8 Ag    9 Ag   10 Ag   11 Ag   12 Ag   13 Ag                 
  1.633   1.633   1.962   1.962   1.967   2.705   0.253   0.368
 14 Ag   15 Ag   16 Ag   17 Ag   18 Ag   19 Ag    4 B1g   5 B1g                
  0.447   0.800   0.864   0.875   1.282   1.582   1.875   1.974
  6 B1g   7 B1g   8 B1g   9 B1g  10 B1g  11 B1g  12 B1g  13 B1g                
  2.170   2.203   2.348   2.562   2.835   3.399   0.253   0.368
 14 B1g  15 B1g  16 B1g  17 B1g  18 B1g  19 B1g   4 B2g   5 B2g                
  0.447   0.800   0.864   0.875   1.282   1.582   1.875   1.974
  6 B2g   7 B2g   8 B2g   9 B2g  10 B2g  11 B2g  12 B2g  13 B2g                
  2.170   2.203   2.348   2.562   2.835   3.399   0.253   0.368
 14 B2g  15 B2g  16 B2g  17 B2g  18 B2g  19 B2g   4 B3g   5 B3g                
  0.447   0.800   0.864   0.875   1.282   1.582   1.875   1.974
  6 B3g   7 B3g   8 B3g   9 B3g  10 B3g  11 B3g  12 B3g  13 B3g                
  2.170   2.203   2.348   2.562   2.835   3.399   0.264   0.519
 14 B3g  15 B3g  16 B3g  17 B3g  18 B3g  19 B3g   3 Au    4 Au                 
  0.519   0.690   0.944   0.944   1.039   1.349   2.082   2.082
  5 Au    6 Au    7 Au    8 Au    9 Au   10 Au   11 Au   12 Au                 
  2.376   2.446   2.446   2.805   2.805   3.150   4.285   0.203
 13 Au   14 Au   15 Au   16 Au   17 Au   18 Au   19 Au    5 B1u                
  0.257   0.668   0.682   0.788   0.997   1.257   1.610   1.709
  6 B1u   7 B1u   8 B1u   9 B1u  10 B1u  11 B1u  12 B1u  13 B1u                
  1.764   1.932   2.194   2.268   2.392   2.770   0.203   0.257
 14 B1u  15 B1u  16 B1u  17 B1u  18 B1u  19 B1u   5 B2u   6 B2u                
  0.668   0.682   0.788   0.997   1.257   1.610   1.709   1.764
  7 B2u   8 B2u   9 B2u  10 B2u  11 B2u  12 B2u  13 B2u  14 B2u                
  1.932   2.194   2.268   2.392   2.770   0.203   0.257   0.668
 15 B2u  16 B2u  17 B2u  18 B2u  19 B2u   5 B3u   6 B3u   7 B3u                
  0.682   0.788   0.997   1.257   1.610   1.709   1.764   1.932
  8 B3u   9 B3u  10 B3u  11 B3u  12 B3u  13 B3u  14 B3u  15 B3u                
  2.194   2.268   2.392   2.770
 16 B3u  17 B3u  18 B3u  19 B3u                                                
 
 Beta MOs, Restricted
 -- Occupied --                  
-11.230 -11.229 -11.229 -11.229 -11.229 -11.230 -11.230 -11.230
  1 Ag    1 B1g   1 B2g   1 B3g   1 Au    1 B1u   1 B2u   1 B3u                
 -1.238  -0.704  -0.574  -0.574  -0.766  -0.384  -0.766  -0.384
  2 Ag    3 Ag    4 Ag    5 Ag    2 B1g   3 B1g   2 B2g   3 B2g                
 -0.766  -0.384  -0.639  -0.975  -0.576  -0.389  -0.975  -0.576
  2 B3g   3 B3g   2 Au    2 B1u   3 B1u   4 B1u   2 B2u   3 B2u                
 -0.389  -0.975  -0.576  -0.389
  4 B2u   2 B3u   3 B3u   4 B3u                                                
 -- Virtual --                   
  0.182   0.494   0.617   0.617   0.918   0.947   0.947   1.329
  6 Ag    7 Ag    8 Ag    9 Ag   10 Ag   11 Ag   12 Ag   13 Ag                 
  1.633   1.633   1.962   1.962   1.967   2.705   0.253   0.368
 14 Ag   15 Ag   16 Ag   17 Ag   18 Ag   19 Ag    4 B1g   5 B1g                
  0.447   0.800   0.864   0.875   1.282   1.582   1.875   1.974
  6 B1g   7 B1g   8 B1g   9 B1g  10 B1g  11 B1g  12 B1g  13 B1g                
  2.170   2.203   2.348   2.562   2.835   3.399   0.253   0.368
 14 B1g  15 B1g  16 B1g  17 B1g  18 B1g  19 B1g   4 B2g   5 B2g                
  0.447   0.800   0.864   0.875   1.282   1.582   1.875   1.974
  6 B2g   7 B2g   8 B2g   9 B2g  10 B2g  11 B2g  12 B2g  13 B2g                
  2.170   2.203   2.348   2.562   2.835   3.399   0.253   0.368
 14 B2g  15 B2g  16 B2g  17 B2g  18 B2g  19 B2g   4 B3g   5 B3g                
  0.447   0.800   0.864   0.875   1.282   1.582   1.875   1.974
  6 B3g   7 B3g   8 B3g   9 B3g  10 B3g  11 B3g  12 B3g  13 B3g                
  2.170   2.203   2.348   2.562   2.835   3.399   0.264   0.519
 14 B3g  15 B3g  16 B3g  17 B3g  18 B3g  19 B3g   3 Au    4 Au                 
  0.519   0.690   0.944   0.944   1.039   1.349   2.082   2.082
  5 Au    6 Au    7 Au    8 Au    9 Au   10 Au   11 Au   12 Au                 
  2.376   2.446   2.446   2.805   2.805   3.150   4.285   0.203
 13 Au   14 Au   15 Au   16 Au   17 Au   18 Au   19 Au    5 B1u                
  0.257   0.668   0.682   0.788   0.997   1.257   1.610   1.709
  6 B1u   7 B1u   8 B1u   9 B1u  10 B1u  11 B1u  12 B1u  13 B1u                
  1.764   1.932   2.194   2.268   2.392   2.770   0.203   0.257
 14 B1u  15 B1u  16 B1u  17 B1u  18 B1u  19 B1u   5 B2u   6 B2u                
  0.668   0.682   0.788   0.997   1.257   1.610   1.709   1.764
  7 B2u   8 B2u   9 B2u  10 B2u  11 B2u  12 B2u  13 B2u  14 B2u                
  1.932   2.194   2.268   2.392   2.770   0.203   0.257   0.668
 15 B2u  16 B2u  17 B2u  18 B2u  19 B2u   5 B3u   6 B3u   7 B3u                
  0.682   0.788   0.997   1.257   1.610   1.709   1.764   1.932
  8 B3u   9 B3u  10 B3u  11 B3u  12 B3u  13 B3u  14 B3u  15 B3u                
  2.194   2.268   2.392   2.770
 16 B3u  17 B3u  18 B3u  19 B3u                                                
 --------------------------------------------------------------
 
          Ground-State Mulliken Net Atomic Charges

     Atom                 Charge (a.u.)
  ----------------------------------------
      1 H                    -0.005187
      2 H                    -0.005187
      3 H                    -0.005187
      4 H                    -0.005187
      5 H                    -0.005187
      6 H                    -0.005187
      7 H                    -0.005187
      8 H                    -0.005187
      9 C                     0.005187
     10 C                     0.005187
     11 C                     0.005187
     12 C                     0.005187
     13 C                     0.005187
     14 C                     0.005187
     15 C                     0.005187
     16 C                     0.005187
  ----------------------------------------
  Sum of atomic charges =     0.000000

 -----------------------------------------------------------------
                    Cartesian Multipole Moments
 -----------------------------------------------------------------
    Charge (ESU x 10^10)
                 0.0000
    Dipole Moment (Debye)
         X       0.0000      Y       0.0000      Z       0.0000
       Tot       0.0000
    Quadrupole Moments (Debye-Ang)
        XX     -47.7308     XY       0.0000     YY     -47.7308
        XZ       0.0000     YZ       0.0000     ZZ     -47.7308
    Octopole Moments (Debye-Ang^2)
       XXX       0.0000    XXY       0.0000    XYY       0.0000
       YYY       0.0000    XXZ       0.0000    XYZ       0.0000
       YYZ       0.0000    XZZ       0.0000    YZZ       0.0000
       ZZZ       0.0000
    Hexadecapole Moments (Debye-Ang^3)
      XXXX    -285.4799   XXXY       0.0000   XXYY     -89.7541
      XYYY       0.0000   YYYY    -285.4799   XXXZ       0.0000
      XXYZ       0.0000   XYYZ       0.0000   YYYZ       0.0000
      XXZZ     -89.7541   XYZZ       0.0000   YYZZ     -89.7541
      XZZZ       0.0000   YZZZ       0.0000   ZZZZ    -285.4799
 -----------------------------------------------------------------
 DrvMan completing analytic gradient of the correlated energy

 Entering direct/semidirect transformation code...
          The following integrals will be calculated:
                        (11|11)
 where index 1 (alpha) is the lowest    144 levels 
       index 1 (beta)  is the lowest    144 levels 
  WARNING: In TrnAlg...
  Not enough memory to support best batch size
  Recommend increasing memory next time...
  Decreasing batch size from          144  to           48
 
  WARNING: In TrnAlg...
  Not enough memory to support best batch size
  Recommend increasing memory next time...
  Decreasing batch size from          144  to           48
  WARNING: In TrnAlg...
  Not enough memory to support best batch size
  Recommend increasing memory next time...
  Decreasing batch size from          144  to           48
 Correlated dipole moment
            1
    1  -0.0000000
    2   0.0000000
    3  -0.0000000
 Nuclear Gradient
             1             2             3             4             5
    1   -3.22367849   -3.22367849    3.22367849    3.22367849    3.22367849
    2   -3.22367863    3.22367863    3.22367863   -3.22367863    3.22367863
    3   -3.22367856    3.22367856   -3.22367856    3.22367856    3.22367856
             6             7             8             9            10
    1    3.22367849   -3.22367849   -3.22367849   -4.24020053   -4.24020053
    2   -3.22367863   -3.22367863    3.22367863   -4.24019912    4.24019912
    3   -3.22367856    3.22367856   -3.22367856   -4.24019931    4.24019931
            11            12            13            14            15
    1    4.24020053    4.24020053    4.24020053    4.24020053   -4.24020053
    2    4.24019912   -4.24019912    4.24019912   -4.24019912   -4.24019912
    3   -4.24019931    4.24019931    4.24019931   -4.24019931    4.24019931
            16
    1   -4.24020053
    2    4.24019912
    3   -4.24019931
 One-electron Gradient
             1             2             3             4             5
    1    3.22367908    3.22367908   -3.22367908   -3.22367908   -3.22367908
    2    3.22367923   -3.22367923   -3.22367923    3.22367923   -3.22367923
    3    3.22367915   -3.22367915    3.22367915   -3.22367915   -3.22367915
             6             7             8             9            10
    1   -3.22367908    3.22367908    3.22367908    4.24020346    4.24020346
    2    3.22367923    3.22367923   -3.22367923    4.24020205   -4.24020205
    3    3.22367915   -3.22367915    3.22367915    4.24020223   -4.24020223
            11            12            13            14            15
    1   -4.24020346   -4.24020346   -4.24020346   -4.24020346    4.24020346
    2   -4.24020205    4.24020205   -4.24020205    4.24020205    4.24020205
    3    4.24020223   -4.24020223   -4.24020223    4.24020223   -4.24020223
            16
    1    4.24020346
    2   -4.24020205
    3    4.24020223
 Energy read as -308.543106398
 Full Analytical Gradient: (in a.u., or Hartree/Bohr)
             1             2             3             4             5
    1    0.00000059    0.00000059   -0.00000059   -0.00000059   -0.00000059
    2    0.00000059   -0.00000059   -0.00000059    0.00000059   -0.00000059
    3    0.00000059   -0.00000059    0.00000059   -0.00000059   -0.00000059
             6             7             8             9            10
    1   -0.00000059    0.00000059    0.00000059    0.00000294    0.00000294
    2    0.00000059    0.00000059   -0.00000059    0.00000292   -0.00000292
    3    0.00000059   -0.00000059    0.00000059    0.00000292   -0.00000292
            11            12            13            14            15
    1   -0.00000294   -0.00000294   -0.00000294   -0.00000294    0.00000294
    2   -0.00000292    0.00000292   -0.00000292    0.00000292    0.00000292
    3    0.00000292   -0.00000292   -0.00000292    0.00000292   -0.00000292
            16
    1    0.00000294
    2   -0.00000292
    3    0.00000292
 Gradient time:  CPU 493.44 s  wall 327.26 s
 Geometry Optimization Parameters
   NAtoms,    NIC,     NZ,  NCons,   NDum,   NFix, NCnnct, MaxDiis
       16     208       0       0       0       0       0       0


** GEOMETRY OPTIMIZATION IN DELOCALIZED INTERNAL COORDINATES **
   Searching for a Minimum

   Optimization Cycle:   1

                       Coordinates (Angstroms)
     ATOM                X               Y               Z
      1  H         1.4250347200    1.4250347000    1.4250347000
      2  H         1.4250347200   -1.4250347000   -1.4250347000
      3  H        -1.4250347200   -1.4250347000    1.4250347000
      4  H        -1.4250347200    1.4250347000   -1.4250347000
      5  H        -1.4250347200   -1.4250347000   -1.4250347000
      6  H        -1.4250347200    1.4250347000    1.4250347000
      7  H         1.4250347200    1.4250347000   -1.4250347000
      8  H         1.4250347200   -1.4250347000    1.4250347000
      9  C         0.7896143900    0.7896143800    0.7896143800
     10  C         0.7896143900   -0.7896143800   -0.7896143800
     11  C        -0.7896143900   -0.7896143800    0.7896143800
     12  C        -0.7896143900    0.7896143800   -0.7896143800
     13  C        -0.7896143900   -0.7896143800   -0.7896143800
     14  C        -0.7896143900    0.7896143800    0.7896143800
     15  C         0.7896143900    0.7896143800   -0.7896143800
     16  C         0.7896143900   -0.7896143800    0.7896143800
   Point Group: d2h   Number of degrees of freedom:     6


   Energy is   -308.543106398


 Attempting to Generate Delocalized Internal Coordinates

  ***ERROR*** Wrong Number of Internal Coordinates
              Should be:   6  Found:   2
**WARNING** Problems with Internal Coordinates
  Switching to Cartesian Coordinates

 Translations and Rotations Projected Out of Hessian

 41 Hessian modes will be used to form the next step
  Hessian Eigenvalues:
     1.000000    1.000000    1.000000    1.000000    1.000000    1.000000
     1.000000    1.000000    1.000000    1.000000    1.000000    1.000000
     1.000000    1.000000    1.000000    1.000000    1.000000    1.000000
     1.000000    1.000000    1.000000    1.000000    1.000000    1.000000
     1.000000    1.000000    1.000000    1.000000    1.000000    1.000000
     1.000000    1.000000    1.000000    1.000000    1.000000    1.000000
     1.000000    1.000000    1.000000    1.000000    1.000000

 Minimum Search - Taking Simple RFO Step
 Searching for Lamda that Minimizes Along All modes
 Value Taken    Lamda =   0.00000000
 Step Taken.  Stepsize is  0.000015

                             Maximum     Tolerance    Cnvgd?
         Gradient           0.000003      0.000300     YES
         Displacement       0.000003      0.001200     YES
         Energy change     *********      0.000001      NO

 Final energy is   -308.543106397933     


 ******************************
 **  OPTIMIZATION CONVERGED  **
 ******************************

                       Coordinates (Angstroms)
     ATOM                X               Y               Z
      1  H         1.4250347200    1.4250347000    1.4250347000
      2  H         1.4250347200   -1.4250347000   -1.4250347000
      3  H        -1.4250347200   -1.4250347000    1.4250347000
      4  H        -1.4250347200    1.4250347000   -1.4250347000
      5  H        -1.4250347200   -1.4250347000   -1.4250347000
      6  H        -1.4250347200    1.4250347000    1.4250347000
      7  H         1.4250347200    1.4250347000   -1.4250347000
      8  H         1.4250347200   -1.4250347000    1.4250347000
      9  C         0.7896143900    0.7896143800    0.7896143800
     10  C         0.7896143900   -0.7896143800   -0.7896143800
     11  C        -0.7896143900   -0.7896143800    0.7896143800
     12  C        -0.7896143900    0.7896143800   -0.7896143800
     13  C        -0.7896143900   -0.7896143800   -0.7896143800
     14  C        -0.7896143900    0.7896143800    0.7896143800
     15  C         0.7896143900    0.7896143800   -0.7896143800
     16  C         0.7896143900   -0.7896143800    0.7896143800

Z-matrix Print:
$molecule
0 1
C 
H  1 1.100580
C  1 1.579229 2 125.264389
H  3 1.100580 1 125.264389 2 0.000000 0
C  1 1.579229 2 125.264389 3 119.999999 0
H  5 1.100580 1 125.264389 2 0.000000 0
C  3 1.579229 1 90.000000 2 135.000000 0
H  7 1.100580 3 125.264389 1 -135.000000 0
C  1 1.579229 2 125.264390 3 -120.000000 0
H  9 1.100580 1 125.264390 2 0.000000 0
C  9 1.579229 1 90.000000 2 -135.000000 0
H  11 1.100580 9 125.264389 1 135.000000 0
C  11 1.579229 9 90.000000 1 -90.000000 0
H  13 1.100580 11 125.264389 9 -135.000000 0
C  9 1.579229 1 90.000000 2 135.000000 0
H  15 1.100580 9 125.264389 1 -135.000000 0
$end

 
 --------------------------------------------------------------
             Orbital Energies (a.u.) and Symmetries
 --------------------------------------------------------------
 
 Alpha MOs, Restricted
 -- Occupied --                  
-11.230 -11.229 -11.229 -11.229 -11.229 -11.230 -11.230 -11.230
  1 Ag    1 B1g   1 B2g   1 B3g   1 Au    1 B1u   1 B2u   1 B3u                
 -1.238  -0.704  -0.574  -0.574  -0.766  -0.384  -0.766  -0.384
  2 Ag    3 Ag    4 Ag    5 Ag    2 B1g   3 B1g   2 B2g   3 B2g                
 -0.766  -0.384  -0.639  -0.975  -0.576  -0.389  -0.975  -0.576
  2 B3g   3 B3g   2 Au    2 B1u   3 B1u   4 B1u   2 B2u   3 B2u                
 -0.389  -0.975  -0.576  -0.389
  4 B2u   2 B3u   3 B3u   4 B3u                                                
 -- Virtual --                   
  0.182   0.494   0.617   0.617   0.918   0.947   0.947   1.329
  6 Ag    7 Ag    8 Ag    9 Ag   10 Ag   11 Ag   12 Ag   13 Ag                 
  1.633   1.633   1.962   1.962   1.967   2.705   0.253   0.368
 14 Ag   15 Ag   16 Ag   17 Ag   18 Ag   19 Ag    4 B1g   5 B1g                
  0.447   0.800   0.864   0.875   1.282   1.582   1.875   1.974
  6 B1g   7 B1g   8 B1g   9 B1g  10 B1g  11 B1g  12 B1g  13 B1g                
  2.170   2.203   2.348   2.562   2.835   3.399   0.253   0.368
 14 B1g  15 B1g  16 B1g  17 B1g  18 B1g  19 B1g   4 B2g   5 B2g                
  0.447   0.800   0.864   0.875   1.282   1.582   1.875   1.974
  6 B2g   7 B2g   8 B2g   9 B2g  10 B2g  11 B2g  12 B2g  13 B2g                
  2.170   2.203   2.348   2.562   2.835   3.399   0.253   0.368
 14 B2g  15 B2g  16 B2g  17 B2g  18 B2g  19 B2g   4 B3g   5 B3g                
  0.447   0.800   0.864   0.875   1.282   1.582   1.875   1.974
  6 B3g   7 B3g   8 B3g   9 B3g  10 B3g  11 B3g  12 B3g  13 B3g                
  2.170   2.203   2.348   2.562   2.835   3.399   0.264   0.519
 14 B3g  15 B3g  16 B3g  17 B3g  18 B3g  19 B3g   3 Au    4 Au                 
  0.519   0.690   0.944   0.944   1.039   1.349   2.082   2.082
  5 Au    6 Au    7 Au    8 Au    9 Au   10 Au   11 Au   12 Au                 
  2.376   2.446   2.446   2.805   2.805   3.150   4.285   0.203
 13 Au   14 Au   15 Au   16 Au   17 Au   18 Au   19 Au    5 B1u                
  0.257   0.668   0.682   0.788   0.997   1.257   1.610   1.709
  6 B1u   7 B1u   8 B1u   9 B1u  10 B1u  11 B1u  12 B1u  13 B1u                
  1.764   1.932   2.194   2.268   2.392   2.770   0.203   0.257
 14 B1u  15 B1u  16 B1u  17 B1u  18 B1u  19 B1u   5 B2u   6 B2u                
  0.668   0.682   0.788   0.997   1.257   1.610   1.709   1.764
  7 B2u   8 B2u   9 B2u  10 B2u  11 B2u  12 B2u  13 B2u  14 B2u                
  1.932   2.194   2.268   2.392   2.770   0.203   0.257   0.668
 15 B2u  16 B2u  17 B2u  18 B2u  19 B2u   5 B3u   6 B3u   7 B3u                
  0.682   0.788   0.997   1.257   1.610   1.709   1.764   1.932
  8 B3u   9 B3u  10 B3u  11 B3u  12 B3u  13 B3u  14 B3u  15 B3u                
  2.194   2.268   2.392   2.770
 16 B3u  17 B3u  18 B3u  19 B3u                                                
 
 Beta MOs, Restricted
 -- Occupied --                  
-11.230 -11.229 -11.229 -11.229 -11.229 -11.230 -11.230 -11.230
  1 Ag    1 B1g   1 B2g   1 B3g   1 Au    1 B1u   1 B2u   1 B3u                
 -1.238  -0.704  -0.574  -0.574  -0.766  -0.384  -0.766  -0.384
  2 Ag    3 Ag    4 Ag    5 Ag    2 B1g   3 B1g   2 B2g   3 B2g                
 -0.766  -0.384  -0.639  -0.975  -0.576  -0.389  -0.975  -0.576
  2 B3g   3 B3g   2 Au    2 B1u   3 B1u   4 B1u   2 B2u   3 B2u                
 -0.389  -0.975  -0.576  -0.389
  4 B2u   2 B3u   3 B3u   4 B3u                                                
 -- Virtual --                   
  0.182   0.494   0.617   0.617   0.918   0.947   0.947   1.329
  6 Ag    7 Ag    8 Ag    9 Ag   10 Ag   11 Ag   12 Ag   13 Ag                 
  1.633   1.633   1.962   1.962   1.967   2.705   0.253   0.368
 14 Ag   15 Ag   16 Ag   17 Ag   18 Ag   19 Ag    4 B1g   5 B1g                
  0.447   0.800   0.864   0.875   1.282   1.582   1.875   1.974
  6 B1g   7 B1g   8 B1g   9 B1g  10 B1g  11 B1g  12 B1g  13 B1g                
  2.170   2.203   2.348   2.562   2.835   3.399   0.253   0.368
 14 B1g  15 B1g  16 B1g  17 B1g  18 B1g  19 B1g   4 B2g   5 B2g                
  0.447   0.800   0.864   0.875   1.282   1.582   1.875   1.974
  6 B2g   7 B2g   8 B2g   9 B2g  10 B2g  11 B2g  12 B2g  13 B2g                
  2.170   2.203   2.348   2.562   2.835   3.399   0.253   0.368
 14 B2g  15 B2g  16 B2g  17 B2g  18 B2g  19 B2g   4 B3g   5 B3g                
  0.447   0.800   0.864   0.875   1.282   1.582   1.875   1.974
  6 B3g   7 B3g   8 B3g   9 B3g  10 B3g  11 B3g  12 B3g  13 B3g                
  2.170   2.203   2.348   2.562   2.835   3.399   0.264   0.519
 14 B3g  15 B3g  16 B3g  17 B3g  18 B3g  19 B3g   3 Au    4 Au                 
  0.519   0.690   0.944   0.944   1.039   1.349   2.082   2.082
  5 Au    6 Au    7 Au    8 Au    9 Au   10 Au   11 Au   12 Au                 
  2.376   2.446   2.446   2.805   2.805   3.150   4.285   0.203
 13 Au   14 Au   15 Au   16 Au   17 Au   18 Au   19 Au    5 B1u                
  0.257   0.668   0.682   0.788   0.997   1.257   1.610   1.709
  6 B1u   7 B1u   8 B1u   9 B1u  10 B1u  11 B1u  12 B1u  13 B1u                
  1.764   1.932   2.194   2.268   2.392   2.770   0.203   0.257
 14 B1u  15 B1u  16 B1u  17 B1u  18 B1u  19 B1u   5 B2u   6 B2u                
  0.668   0.682   0.788   0.997   1.257   1.610   1.709   1.764
  7 B2u   8 B2u   9 B2u  10 B2u  11 B2u  12 B2u  13 B2u  14 B2u                
  1.932   2.194   2.268   2.392   2.770   0.203   0.257   0.668
 15 B2u  16 B2u  17 B2u  18 B2u  19 B2u   5 B3u   6 B3u   7 B3u                
  0.682   0.788   0.997   1.257   1.610   1.709   1.764   1.932
  8 B3u   9 B3u  10 B3u  11 B3u  12 B3u  13 B3u  14 B3u  15 B3u                
  2.194   2.268   2.392   2.770
 16 B3u  17 B3u  18 B3u  19 B3u                                                
 --------------------------------------------------------------
 
          Ground-State Mulliken Net Atomic Charges

     Atom                 Charge (a.u.)
  ----------------------------------------
      1 H                    -0.005187
      2 H                    -0.005187
      3 H                    -0.005187
      4 H                    -0.005187
      5 H                    -0.005187
      6 H                    -0.005187
      7 H                    -0.005187
      8 H                    -0.005187
      9 C                     0.005187
     10 C                     0.005187
     11 C                     0.005187
     12 C                     0.005187
     13 C                     0.005187
     14 C                     0.005187
     15 C                     0.005187
     16 C                     0.005187
  ----------------------------------------
  Sum of atomic charges =     0.000000

 -----------------------------------------------------------------
                    Cartesian Multipole Moments
 -----------------------------------------------------------------
    Charge (ESU x 10^10)
                 0.0000
    Dipole Moment (Debye)
         X       0.0000      Y       0.0000      Z       0.0000
       Tot       0.0000
    Quadrupole Moments (Debye-Ang)
        XX     -47.7308     XY       0.0000     YY     -47.7308
        XZ       0.0000     YZ       0.0000     ZZ     -47.7308
    Octopole Moments (Debye-Ang^2)
       XXX       0.0000    XXY       0.0000    XYY       0.0000
       YYY       0.0000    XXZ       0.0000    XYZ       0.0000
       YYZ       0.0000    XZZ       0.0000    YZZ       0.0000
       ZZZ       0.0000
    Hexadecapole Moments (Debye-Ang^3)
      XXXX    -285.4799   XXXY       0.0000   XXYY     -89.7541
      XYYY       0.0000   YYYY    -285.4799   XXXZ       0.0000
      XXYZ       0.0000   XYYZ       0.0000   YYYZ       0.0000
      XXZZ     -89.7541   XYZZ       0.0000   YYZZ     -89.7541
      XZZZ       0.0000   YZZZ       0.0000   ZZZZ    -285.4799
 -----------------------------------------------------------------
Archival summary:
1\1\konkov-work\OPT\ProcedureUnspecified\BasisUnspecified\88\vladimir\WedDec2408:22:132008WedDec2408:22:132008\0\\#,OPT,ProcedureUnspecified,BasisUnspecified,\\0,1\C\H,1,1.10058\C,1,1.57923,2,125.264\H,3,1.10058,1,125.264,2,0,0\C,1,1.57923,2,125.264,3,120,0\H,5,1.10058,1,125.264,2,0,0\C,3,1.57923,1,90,2,135,0\H,7,1.10058,3,125.264,1,-135,0\C,1,1.57923,2,125.264,3,-120,0\H,9,1.10058,1,125.264,2,0,0\C,9,1.57923,1,90,2,-135,0\H,11,1.10058,9,125.264,1,135,0\C,11,1.57923,9,90,1,-90,0\H,13,1.10058,11,125.264,9,-135,0\C,9,1.57923,1,90,2,135,0\H,15,1.10058,9,125.264,1,-135,0\\HF=-307.412387\\@

 Total job time:  388.90s(wall), 715.06s(cpu) 
 Wed Dec 24 08:22:13 2008

        *************************************************************
        *                                                           *
        *  Thank you very much for using Q-Chem.  Have a nice day.  *
        *                                                           *
        *************************************************************


