
                                 *****************
                                 * O   R   C   A *
                                 *****************

           --- An Ab Initio, DFT and Semiempirical electronic structure package ---

                  #######################################################
                  #                        -***-                        #
                  #  Department of molecular theory and spectroscopy    #
                  #              Directorship: Frank Neese              #
                  # Max Planck Institute for Chemical Energy Conversion #
                  #                  D-45470 Muelheim/Ruhr              #
                  #                       Germany                       #
                  #                                                     #
                  #                  All rights reserved                #
                  #                        -***-                        #
                  #######################################################


                         Program Version 3.0.3 - RELEASE   -


 With contributions from (in alphabetic order):
   Ute Becker             : Parallelization
   Dmytro Bykov           : SCF Hessian
   Dmitry Ganyushin       : Spin-Orbit,Spin-Spin,Magnetic field MRCI
   Andreas Hansen         : Spin unrestricted coupled pair/coupled cluster methods
   Dimitrios Liakos       : Extrapolation schemes; parallel MDCI
   Robert Izsak           : Overlap fitted RIJCOSX, COSX-SCS-MP3
   Christian Kollmar      : KDIIS, OOCD, Brueckner-CCSD(T), CCSD density
   Simone Kossmann        : Meta GGA functionals, TD-DFT gradient, OOMP2, MP2 Hessian
   Taras Petrenko         : DFT Hessian,TD-DFT gradient, ASA and ECA modules, normal mode analysis, Resonance Raman, ABS, FL, XAS/XES, NRVS
   Christoph Reimann      : Effective Core Potentials
   Michael Roemelt        : Restricted open shell CIS
   Christoph Riplinger    : Improved optimizer, TS searches, QM/MM, DLPNO-CCSD
   Barbara Sandhoefer     : DKH picture change effects
   Igor Schapiro          : Molecular dynamics
   Kantharuban Sivalingam : CASSCF convergence, NEVPT2
   Boris Wezisla          : Elementary symmetry handling
   Frank Wennmohs         : Technical directorship


 We gratefully acknowledge several colleagues who have allowed us to
 interface, adapt or use parts of their codes:
   Stefan Grimme, W. Hujo, H. Kruse, T. Risthaus : VdW corrections, initial TS optimization,
                                                   DFT functionals, gCP
   Ed Valeev                                     : LibInt (2-el integral package), F12 methods
   Garnet Chan, S. Sharma, R. Olivares           : DMRG
   Ulf Ekstrom                                   : XCFun DFT Library
   Mihaly Kallay                                 : mrcc  (arbitrary order and MRCC methods)
   Andreas Klamt, Michael Diedenhofen            : otool_cosmo (COSMO solvation model)
   Frank Weinhold                                : gennbo (NPA and NBO analysis)
   Christopher J. Cramer and Donald G. Truhlar   : smd solvation model


 Your calculation uses the libint2 library for the computation of 2-el integrals
 For citations please refer to: http://libint.valeyev.net

 This ORCA versions uses:
   CBLAS   interface :  Fast vector & matrix operations
   LAPACKE interface :  Fast linear algebra routines
   SCALAPACK package :  Parallel linear algebra routines


Your calculation utilizes the basis: cc-VTZ
Cite in your paper:
 H     : T.H. Dunning, Jr. J. Chem. Phys. 90, 1007 (1989).
 He    : D.E. Woon and T.H. Dunning, Jr. J. Chem. Phys. 100, 2975 (1994).
Li - Ne: T.H. Dunning, Jr. J. Chem. Phys. 90, 1007 (1989).
Na - Mg: D.E. Woon and T.H. Dunning, Jr.  (to be published)
Al - Ar: D.E. Woon and T.H. Dunning, Jr.  J. Chem. Phys. 98, 1358 (1993).

Your calculation utilizes polarization functions from the basis: cc-pVTZ
Cite in your paper:
 H     : T.H. Dunning, Jr. J. Chem. Phys. 90, 1007 (1989).
 He    : D.E. Woon and T.H. Dunning, Jr. J. Chem. Phys. 100, 2975 (1994).
Li - Ne: T.H. Dunning, Jr. J. Chem. Phys. 90, 1007 (1989).
Na - Mg: D.E. Woon and T.H. Dunning, Jr.  (to be published)
Al - Ar: D.E. Woon and T.H. Dunning, Jr.  J. Chem. Phys. 98, 1358 (1993).

================================================================================
                                        WARNINGS
                       Please study these warnings very carefully!
================================================================================
Now building the actual basis set

WARNING: The environment variable RSH_COMMAND is not set!
  ===> : All Displacements for the Numerical Hessian calculation
         will be started on localhost

WARNING: Geometry Optimization
  ===> : Switching off AutoStart
         For restart on a previous wavefunction, please use MOREAD


INFO   : the flag for use of LIBINT has been found!

================================================================================
                                       INPUT FILE
================================================================================
NAME = /home/vladimir/Quantum_Chemistry/ORCA/C8H8/cubane/optimize/CC/DLPNO_CCSDT/cc-pVTZ/./cubane.inp
|  1> # ================================================================
|  2> # Orca input file for cubane
|  3> # ================================================================
|  4> ! DLPNO-CCSD(T) cc-pVTZ cc-pVTZ/C TightSCF TightOpt
|  5> ! NumGrad
|  6> ! PAL4
|  7> 
|  8> %maxcore 2000
|  9> 
| 10> * xyz 0 1
| 11>  H                     1.4154     1.4154     1.4154
| 12>  H                    -1.4154    -1.4154     1.4154
| 13>  H                    -1.4154     1.4154    -1.4154
| 14>  H                     1.4154    -1.4154    -1.4154
| 15>  H                    -1.4154    -1.4154    -1.4154
| 16>  H                     1.4154     1.4154    -1.4154
| 17>  H                     1.4154    -1.4154     1.4154
| 18>  H                    -1.4154     1.4154     1.4154
| 19>  C                     0.7874     0.7874     0.7874
| 20>  C                    -0.7874    -0.7874     0.7874
| 21>  C                    -0.7874     0.7874    -0.7874
| 22>  C                     0.7874    -0.7874    -0.7874
| 23>  C                    -0.7874    -0.7874    -0.7874
| 24>  C                     0.7874     0.7874    -0.7874
| 25>  C                     0.7874    -0.7874     0.7874
| 26>  C                    -0.7874     0.7874     0.7874
| 27> *
| 28> 
| 29>                          ****END OF INPUT****
================================================================================

                       *****************************
                       * Geometry Optimization Run *
                       *****************************

Geometry optimization settings:
Update method            Update   .... BFGS
Choice of coordinates    CoordSys .... Redundant Internals
Initial Hessian          InHess   .... Almoef's Model

Convergence Tolerances:
Energy Change            TolE     ....  1.0000e-06 Eh
Max. Gradient            TolMAXG  ....  1.0000e-04 Eh/bohr
RMS Gradient             TolRMSG  ....  3.0000e-05 Eh/bohr
Max. Displacement        TolMAXD  ....  1.0000e-03 bohr
RMS Displacement         TolRMSD  ....  6.0000e-04 bohr

------------------------------------------------------------------------------
                        ORCA OPTIMIZATION COORDINATE SETUP
------------------------------------------------------------------------------

The optimization will be done in new redundant internal coordinates
Making redundant internal coordinates   ...  (new redundants) done
Evaluating the initial hessian          ...  (Almloef) done
Evaluating the coordinates              ...  done
Calculating the B-matrix                .... done
Calculating the G-matrix                .... done
Diagonalizing the G-matrix              .... done
The first mode is                       ....  134
The number of degrees of freedom        ....   42

    -----------------------------------------------------------------
                    Redundant Internal Coordinates


    -----------------------------------------------------------------
         Definition                    Initial Value    Approx d2E/dq
    -----------------------------------------------------------------
      1. B(C   8,H   0)                  1.0877         0.363118   
      2. B(C   9,H   1)                  1.0877         0.363118   
      3. B(C  10,H   2)                  1.0877         0.363118   
      4. B(C  11,H   3)                  1.0877         0.363118   
      5. B(C  12,C   9)                  1.5748         0.316885   
      6. B(C  12,C  10)                  1.5748         0.316885   
      7. B(C  12,H   4)                  1.0877         0.363118   
      8. B(C  12,C  11)                  1.5748         0.316885   
      9. B(C  13,C  11)                  1.5748         0.316885   
     10. B(C  13,C  10)                  1.5748         0.316885   
     11. B(C  13,C   8)                  1.5748         0.316885   
     12. B(C  13,H   5)                  1.0877         0.363118   
     13. B(C  14,C   9)                  1.5748         0.316885   
     14. B(C  14,C   8)                  1.5748         0.316885   
     15. B(C  14,H   6)                  1.0877         0.363118   
     16. B(C  14,C  11)                  1.5748         0.316885   
     17. B(C  15,C  10)                  1.5748         0.316885   
     18. B(C  15,C   9)                  1.5748         0.316885   
     19. B(C  15,C   8)                  1.5748         0.316885   
     20. B(C  15,H   7)                  1.0877         0.363118   
     21. A(H   0,C   8,C  13)          125.2644         0.316143   
     22. A(H   0,C   8,C  15)          125.2644         0.316143   
     23. A(C  13,C   8,C  15)           90.0000         0.343655   
     24. A(C  14,C   8,C  15)           90.0000         0.343655   
     25. A(H   0,C   8,C  14)          125.2644         0.316143   
     26. A(C  13,C   8,C  14)           90.0000         0.343655   
     27. A(H   1,C   9,C  14)          125.2644         0.316143   
     28. A(C  14,C   9,C  15)           90.0000         0.343655   
     29. A(C  12,C   9,C  15)           90.0000         0.343655   
     30. A(H   1,C   9,C  12)          125.2644         0.316143   
     31. A(H   1,C   9,C  15)          125.2644         0.316143   
     32. A(C  12,C   9,C  14)           90.0000         0.343655   
     33. A(C  12,C  10,C  13)           90.0000         0.343655   
     34. A(H   2,C  10,C  13)          125.2644         0.316143   
     35. A(C  12,C  10,C  15)           90.0000         0.343655   
     36. A(H   2,C  10,C  15)          125.2644         0.316143   
     37. A(C  13,C  10,C  15)           90.0000         0.343655   
     38. A(H   2,C  10,C  12)          125.2644         0.316143   
     39. A(C  13,C  11,C  14)           90.0000         0.343655   
     40. A(C  12,C  11,C  14)           90.0000         0.343655   
     41. A(H   3,C  11,C  14)          125.2644         0.316143   
     42. A(H   3,C  11,C  12)          125.2644         0.316143   
     43. A(C  12,C  11,C  13)           90.0000         0.343655   
     44. A(H   3,C  11,C  13)          125.2644         0.316143   
     45. A(H   4,C  12,C  11)          125.2644         0.316143   
     46. A(C   9,C  12,C  10)           90.0000         0.343655   
     47. A(C  10,C  12,C  11)           90.0000         0.343655   
     48. A(H   4,C  12,C  10)          125.2644         0.316143   
     49. A(C   9,C  12,C  11)           90.0000         0.343655   
     50. A(H   4,C  12,C   9)          125.2644         0.316143   
     51. A(C   8,C  13,C  10)           90.0000         0.343655   
     52. A(H   5,C  13,C  10)          125.2644         0.316143   
     53. A(H   5,C  13,C   8)          125.2644         0.316143   
     54. A(C  10,C  13,C  11)           90.0000         0.343655   
     55. A(C   8,C  13,C  11)           90.0000         0.343655   
     56. A(H   5,C  13,C  11)          125.2644         0.316143   
     57. A(H   6,C  14,C  11)          125.2644         0.316143   
     58. A(C   8,C  14,C   9)           90.0000         0.343655   
     59. A(H   6,C  14,C   9)          125.2644         0.316143   
     60. A(H   6,C  14,C   8)          125.2644         0.316143   
     61. A(C   9,C  14,C  11)           90.0000         0.343655   
     62. A(C   8,C  14,C  11)           90.0000         0.343655   
     63. A(C   9,C  15,C  10)           90.0000         0.343655   
     64. A(C   8,C  15,C  10)           90.0000         0.343655   
     65. A(H   7,C  15,C  10)          125.2644         0.316143   
     66. A(C   8,C  15,C   9)           90.0000         0.343655   
     67. A(H   7,C  15,C   9)          125.2644         0.316143   
     68. A(H   7,C  15,C   8)          125.2644         0.316143   
     69. D(C  11,C  12,C  10,C  13)      0.0000         0.008250   
     70. D(C   9,C  12,C  10,C  13)     90.0000         0.008250   
     71. D(C   9,C  12,C  11,H   3)    135.0000         0.008250   
     72. D(C  11,C  12,C   9,C  15)     90.0000         0.008250   
     73. D(H   4,C  12,C  11,H   3)      0.0000         0.008250   
     74. D(H   4,C  12,C  10,H   2)      0.0000         0.008250   
     75. D(H   4,C  12,C  10,C  13)   -135.0000         0.008250   
     76. D(C   9,C  12,C  11,C  14)      0.0000         0.008250   
     77. D(C   9,C  12,C  11,C  13)    -90.0000         0.008250   
     78. D(C  10,C  12,C  11,C  13)      0.0000         0.008250   
     79. D(C  11,C  12,C   9,H   1)   -135.0000         0.008250   
     80. D(C  10,C  12,C  11,C  14)     90.0000         0.008250   
     81. D(C  10,C  12,C   9,C  14)    -90.0000         0.008250   
     82. D(C  11,C  12,C   9,C  14)      0.0000         0.008250   
     83. D(C  11,C  12,C  10,H   2)    135.0000         0.008250   
     84. D(H   4,C  12,C  11,C  14)   -135.0000         0.008250   
     85. D(H   4,C  12,C   9,H   1)      0.0000         0.008250   
     86. D(C   9,C  12,C  10,H   2)   -135.0000         0.008250   
     87. D(H   4,C  12,C   9,C  15)   -135.0000         0.008250   
     88. D(C  10,C  12,C  11,H   3)   -135.0000         0.008250   
     89. D(C  10,C  12,C   9,H   1)    135.0000         0.008250   
     90. D(C  10,C  12,C   9,C  15)      0.0000         0.008250   
     91. D(H   4,C  12,C  11,C  13)    135.0000         0.008250   
     92. D(H   4,C  12,C  10,C  15)    135.0000         0.008250   
     93. D(H   4,C  12,C   9,C  14)    135.0000         0.008250   
     94. D(C  11,C  12,C  10,C  15)    -90.0000         0.008250   
     95. D(C   9,C  12,C  10,C  15)      0.0000         0.008250   
     96. D(H   5,C  13,C   8,C  15)    135.0000         0.008250   
     97. D(H   5,C  13,C   8,C  14)   -135.0000         0.008250   
     98. D(C  10,C  13,C   8,H   0)   -135.0000         0.008250   
     99. D(H   5,C  13,C   8,H   0)      0.0000         0.008250   
    100. D(C  10,C  13,C  11,C  14)    -90.0000         0.008250   
    101. D(C  10,C  13,C  11,H   3)    135.0000         0.008250   
    102. D(C   8,C  13,C  11,H   3)   -135.0000         0.008250   
    103. D(H   5,C  13,C  11,C  14)    135.0000         0.008250   
    104. D(C   8,C  13,C  11,C  12)     90.0000         0.008250   
    105. D(C   8,C  13,C  11,C  14)      0.0000         0.008250   
    106. D(C  11,C  13,C  10,C  12)      0.0000         0.008250   
    107. D(C  11,C  13,C  10,H   2)   -135.0000         0.008250   
    108. D(C   8,C  13,C  10,C  15)      0.0000         0.008250   
    109. D(C  10,C  13,C  11,C  12)      0.0000         0.008250   
    110. D(C   8,C  13,C  10,C  12)    -90.0000         0.008250   
    111. D(C   8,C  13,C  10,H   2)    135.0000         0.008250   
    112. D(C  11,C  13,C  10,C  15)     90.0000         0.008250   
    113. D(H   5,C  13,C  11,H   3)      0.0000         0.008250   
    114. D(H   5,C  13,C  11,C  12)   -135.0000         0.008250   
    115. D(C  11,C  13,C   8,C  14)      0.0000         0.008250   
    116. D(H   5,C  13,C  10,H   2)      0.0000         0.008250   
    117. D(C  11,C  13,C   8,C  15)    -90.0000         0.008250   
    118. D(H   5,C  13,C  10,C  15)   -135.0000         0.008250   
    119. D(C  11,C  13,C   8,H   0)    135.0000         0.008250   
    120. D(C  10,C  13,C   8,C  15)      0.0000         0.008250   
    121. D(C  10,C  13,C   8,C  14)     90.0000         0.008250   
    122. D(H   5,C  13,C  10,C  12)    135.0000         0.008250   
    123. D(C  11,C  14,C   8,C  13)      0.0000         0.008250   
    124. D(C  11,C  14,C   8,H   0)   -135.0000         0.008250   
    125. D(C   9,C  14,C   8,C  15)      0.0000         0.008250   
    126. D(C   9,C  14,C   8,C  13)    -90.0000         0.008250   
    127. D(C   9,C  14,C   8,H   0)    135.0000         0.008250   
    128. D(H   6,C  14,C   8,C  15)   -135.0000         0.008250   
    129. D(H   6,C  14,C   8,C  13)    135.0000         0.008250   
    130. D(C  11,C  14,C   8,C  15)     90.0000         0.008250   
    131. D(H   6,C  14,C   8,H   0)      0.0000         0.008250   
    132. D(C   9,C  14,C  11,C  13)     90.0000         0.008250   
    133. D(C   9,C  14,C  11,C  12)      0.0000         0.008250   
    134. D(C   8,C  14,C  11,C  13)      0.0000         0.008250   
    135. D(C   8,C  14,C  11,C  12)    -90.0000         0.008250   
    136. D(C   8,C  14,C  11,H   3)    135.0000         0.008250   
    137. D(H   6,C  14,C  11,C  12)    135.0000         0.008250   
    138. D(H   6,C  14,C  11,H   3)      0.0000         0.008250   
    139. D(C  11,C  14,C   9,C  15)    -90.0000         0.008250   
    140. D(C  11,C  14,C   9,C  12)      0.0000         0.008250   
    141. D(C  11,C  14,C   9,H   1)    135.0000         0.008250   
    142. D(H   6,C  14,C  11,C  13)   -135.0000         0.008250   
    143. D(C   8,C  14,C   9,C  15)      0.0000         0.008250   
    144. D(C   8,C  14,C   9,C  12)     90.0000         0.008250   
    145. D(C   8,C  14,C   9,H   1)   -135.0000         0.008250   
    146. D(C   9,C  14,C  11,H   3)   -135.0000         0.008250   
    147. D(H   6,C  14,C   9,C  15)    135.0000         0.008250   
    148. D(H   6,C  14,C   9,C  12)   -135.0000         0.008250   
    149. D(H   6,C  14,C   9,H   1)      0.0000         0.008250   
    150. D(C   9,C  15,C  10,C  13)    -90.0000         0.008250   
    151. D(C   9,C  15,C  10,H   2)    135.0000         0.008250   
    152. D(C   8,C  15,C  10,C  13)      0.0000         0.008250   
    153. D(C   8,C  15,C  10,C  12)     90.0000         0.008250   
    154. D(H   7,C  15,C  10,C  13)    135.0000         0.008250   
    155. D(H   7,C  15,C  10,C  12)   -135.0000         0.008250   
    156. D(H   7,C  15,C  10,H   2)      0.0000         0.008250   
    157. D(C  10,C  15,C   9,C  14)     90.0000         0.008250   
    158. D(C  10,C  15,C   9,C  12)      0.0000         0.008250   
    159. D(C  10,C  15,C   9,H   1)   -135.0000         0.008250   
    160. D(C   8,C  15,C   9,C  14)      0.0000         0.008250   
    161. D(C   8,C  15,C   9,C  12)    -90.0000         0.008250   
    162. D(C   8,C  15,C   9,H   1)    135.0000         0.008250   
    163. D(H   7,C  15,C   9,C  14)   -135.0000         0.008250   
    164. D(H   7,C  15,C   9,C  12)    135.0000         0.008250   
    165. D(H   7,C  15,C   9,H   1)      0.0000         0.008250   
    166. D(C  10,C  15,C   8,C  14)    -90.0000         0.008250   
    167. D(C  10,C  15,C   8,C  13)      0.0000         0.008250   
    168. D(C  10,C  15,C   8,H   0)    135.0000         0.008250   
    169. D(C   9,C  15,C   8,C  14)      0.0000         0.008250   
    170. D(C   8,C  15,C  10,H   2)   -135.0000         0.008250   
    171. D(C   9,C  15,C   8,C  13)     90.0000         0.008250   
    172. D(C   9,C  15,C   8,H   0)   -135.0000         0.008250   
    173. D(H   7,C  15,C   8,C  14)    135.0000         0.008250   
    174. D(C   9,C  15,C  10,C  12)      0.0000         0.008250   
    175. D(H   7,C  15,C   8,C  13)   -135.0000         0.008250   
    176. D(H   7,C  15,C   8,H   0)      0.0000         0.008250   
    -----------------------------------------------------------------

Number of atoms                         .... 16
Number of degrees of freedom            .... 176

         *************************************************************
         *                GEOMETRY OPTIMIZATION CYCLE   1            *
         *************************************************************
---------------------------------
CARTESIAN COORDINATES (ANGSTROEM)
---------------------------------
  H      1.415400    1.415400    1.415400
  H     -1.415400   -1.415400    1.415400
  H     -1.415400    1.415400   -1.415400
  H      1.415400   -1.415400   -1.415400
  H     -1.415400   -1.415400   -1.415400
  H      1.415400    1.415400   -1.415400
  H      1.415400   -1.415400    1.415400
  H     -1.415400    1.415400    1.415400
  C      0.787400    0.787400    0.787400
  C     -0.787400   -0.787400    0.787400
  C     -0.787400    0.787400   -0.787400
  C      0.787400   -0.787400   -0.787400
  C     -0.787400   -0.787400   -0.787400
  C      0.787400    0.787400   -0.787400
  C      0.787400   -0.787400    0.787400
  C     -0.787400    0.787400    0.787400

----------------------------
CARTESIAN COORDINATES (A.U.)
----------------------------
  NO LB      ZA    FRAG    MASS        X           Y           Z
   0 H     1.0000    0     1.008          2.674718369952140          2.674718369952140          2.674718369952140
   1 H     1.0000    0     1.008         -2.674718369952140         -2.674718369952140          2.674718369952140
   2 H     1.0000    0     1.008         -2.674718369952140          2.674718369952140         -2.674718369952140
   3 H     1.0000    0     1.008          2.674718369952140         -2.674718369952140         -2.674718369952140
   4 H     1.0000    0     1.008         -2.674718369952140         -2.674718369952140         -2.674718369952140
   5 H     1.0000    0     1.008          2.674718369952140          2.674718369952140         -2.674718369952140
   6 H     1.0000    0     1.008          2.674718369952140         -2.674718369952140          2.674718369952140
   7 H     1.0000    0     1.008         -2.674718369952140          2.674718369952140          2.674718369952140
   8 C     6.0000    0    12.011          1.487970357849594          1.487970357849594          1.487970357849594
   9 C     6.0000    0    12.011         -1.487970357849594         -1.487970357849594          1.487970357849594
  10 C     6.0000    0    12.011         -1.487970357849594          1.487970357849594         -1.487970357849594
  11 C     6.0000    0    12.011          1.487970357849594         -1.487970357849594         -1.487970357849594
  12 C     6.0000    0    12.011         -1.487970357849594         -1.487970357849594         -1.487970357849594
  13 C     6.0000    0    12.011          1.487970357849594          1.487970357849594         -1.487970357849594
  14 C     6.0000    0    12.011          1.487970357849594         -1.487970357849594          1.487970357849594
  15 C     6.0000    0    12.011         -1.487970357849594          1.487970357849594          1.487970357849594

--------------------------------
INTERNAL COORDINATES (ANGSTROEM)
--------------------------------
 H      0   0   0   0.000000     0.000     0.000
 H      1   0   0   4.003356     0.000     0.000
 H      1   2   0   4.003356    60.000     0.000
 H      1   2   3   4.003356    60.000   289.471
 H      2   1   3   2.830800    90.000    35.264
 H      1   2   3   2.830800    90.000   324.736
 H      1   2   3   2.830800    45.000   234.736
 H      1   2   3   2.830800    45.000    54.736
 C      1   2   3   1.087728    35.264   324.736
 C      2   1   3   1.087728    35.264    35.264
 C      3   1   2   1.087728    35.264   324.736
 C      4   1   2   1.087728    35.264    35.264
 C      5   2   1   1.087728    54.736     0.000
 C      6   1   2   1.087728    54.736     0.000
 C      7   1   2   1.087728    54.736    45.000
 C      8   1   2   1.087728    54.736   315.000

---------------------------
INTERNAL COORDINATES (A.U.)
---------------------------
 H      0   0   0   0.000000     0.000     0.000
 H      1   0   0   7.565246     0.000     0.000
 H      1   2   0   7.565246    60.000     0.000
 H      1   2   3   7.565246    60.000   289.471
 H      2   1   3   5.349437    90.000    35.264
 H      1   2   3   5.349437    90.000   324.736
 H      1   2   3   5.349437    45.000   234.736
 H      1   2   3   5.349437    45.000    54.736
 C      1   2   3   2.055508    35.264   324.736
 C      2   1   3   2.055508    35.264    35.264
 C      3   1   2   2.055508    35.264   324.736
 C      4   1   2   2.055508    35.264    35.264
 C      5   2   1   2.055508    54.736     0.000
 C      6   1   2   2.055508    54.736     0.000
 C      7   1   2   2.055508    54.736    45.000
 C      8   1   2   2.055508    54.736   315.000

---------------------
BASIS SET INFORMATION
---------------------
There are 2 groups of distinct atoms

 Group   1 Type H   : 5s2p1d contracted to 3s2p1d pattern {311/11/1}
 Group   2 Type C   : 18s5p2d1f contracted to 4s3p2d1f pattern {8811/311/11/1}

Atom   0H    basis set group =>   1
Atom   1H    basis set group =>   1
Atom   2H    basis set group =>   1
Atom   3H    basis set group =>   1
Atom   4H    basis set group =>   1
Atom   5H    basis set group =>   1
Atom   6H    basis set group =>   1
Atom   7H    basis set group =>   1
Atom   8C    basis set group =>   2
Atom   9C    basis set group =>   2
Atom  10C    basis set group =>   2
Atom  11C    basis set group =>   2
Atom  12C    basis set group =>   2
Atom  13C    basis set group =>   2
Atom  14C    basis set group =>   2
Atom  15C    basis set group =>   2

INFORMATION: There is an auxiliary basis set but the global RI flag is NOT set

-------------------------------
AUXILIARY BASIS SET INFORMATION
-------------------------------
There are 2 groups of distinct atoms

 Group   1 Type H   : 4s3p2d1f contracted to 4s3p2d1f pattern {1111/111/11/1}
 Group   2 Type C   : 8s6p5d3f1g contracted to 8s6p5d3f1g pattern {11111111/111111/11111/111/1}

Atom   0H    basis set group =>   1
Atom   1H    basis set group =>   1
Atom   2H    basis set group =>   1
Atom   3H    basis set group =>   1
Atom   4H    basis set group =>   1
Atom   5H    basis set group =>   1
Atom   6H    basis set group =>   1
Atom   7H    basis set group =>   1
Atom   8C    basis set group =>   2
Atom   9C    basis set group =>   2
Atom  10C    basis set group =>   2
Atom  11C    basis set group =>   2
Atom  12C    basis set group =>   2
Atom  13C    basis set group =>   2
Atom  14C    basis set group =>   2
Atom  15C    basis set group =>   2


           ************************************************************
           *        Program running with 4 parallel MPI-processes     *
           *              working on a common directory               *
           ************************************************************
------------------------------------------------------------------------------
                           ORCA GTO INTEGRAL CALCULATION
------------------------------------------------------------------------------

                         BASIS SET STATISTICS AND STARTUP INFO

 # of primitive gaussian shells          ...  272
 # of primitive gaussian functions       ...  528
 # of contracted shell                   ...  128
 # of contracted basis functions         ...  352
 Highest angular momentum                ...    3
 Maximum contraction depth               ...    8
 Integral package used                   ... LIBINT
 Integral threshhold            Thresh   ...  2.500e-11
 Primitive cut-off              TCut     ...  2.500e-12


                              INTEGRAL EVALUATION

 One electron integrals                  ... done
 Pre-screening matrix                    ... done
 Shell pair data                         ... done (   0.004 sec)

           ************************************************************
           *              Shut down parallel processing               *
           ************************************************************


           ************************************************************
           *        Program running with 4 parallel MPI-processes     *
           *              working on a common directory               *
           ************************************************************
-------------------------------------------------------------------------------
                                 ORCA SCF
-------------------------------------------------------------------------------

------------
SCF SETTINGS
------------
Hamiltonian:
 Ab initio Hamiltonian  Method          .... Hartree-Fock(GTOs)


General Settings:
 Integral files         IntName         .... /home/vladimir/Quantum_Chemistry/ORCA/C8H8/cubane/optimize/CC/DLPNO_CCSDT/cc-pVTZ/./cubane
 Hartree-Fock type      HFTyp           .... RHF
 Total Charge           Charge          ....    0
 Multiplicity           Mult            ....    1
 Number of Electrons    NEL             ....   56
 Basis Dimension        Dim             ....  352
 Nuclear Repulsion      ENuc            ....    366.0801781639 Eh

Convergence Acceleration:
 DIIS                   CNVDIIS         .... on
   Start iteration      DIISMaxIt       ....    12
   Startup error        DIISStart       ....  0.200000
   # of expansion vecs  DIISMaxEq       ....     5
   Bias factor          DIISBfac        ....   1.050
   Max. coefficient     DIISMaxC        ....  10.000
 Newton-Raphson         CNVNR           .... off
 SOSCF                  CNVSOSCF        .... on
   Start iteration      SOSCFMaxIt      ....   150
   Startup grad/error   SOSCFStart      ....  0.003300
 Level Shifting         CNVShift        .... on
   Level shift para.    LevelShift      ....    0.2500
   Turn off err/grad.   ShiftErr        ....    0.0010
 Zerner damping         CNVZerner       .... off
 Static damping         CNVDamp         .... on
   Fraction old density DampFac         ....    0.7000
   Max. Damping (<1)    DampMax         ....    0.9800
   Min. Damping (>=0)   DampMin         ....    0.0000
   Turn off err/grad.   DampErr         ....    0.1000
 Fernandez-Rico         CNVRico         .... off

SCF Procedure:
 Maximum # iterations   MaxIter         ....   125
 SCF integral mode      SCFMode         .... Direct
   Integral package                     .... LIBINT
 Reset frequeny         DirectResetFreq ....    20
 Integral Threshold     Thresh          ....  2.500e-11 Eh
 Primitive CutOff       TCut            ....  2.500e-12 Eh

Convergence Tolerance:
 Convergence Check Mode ConvCheckMode   .... Total+1el-Energy
 Energy Change          TolE            ....  1.000e-08 Eh
 1-El. energy change                    ....  1.000e-05 Eh
 Orbital Gradient       TolG            ....  1.000e-05
 Orbital Rotation angle TolX            ....  1.000e-05
 DIIS Error             TolErr          ....  5.000e-07


Diagonalization of the overlap matrix:
Smallest eigenvalue                        ... 9.162e-06
Time for diagonalization                   ...    0.126 sec
Threshold for overlap eigenvalues          ... 1.000e-08
Number of eigenvalues below threshold      ... 0
Time for construction of square roots      ...    0.007 sec
Total time needed                          ...    0.135 sec

-------------------
DFT GRID GENERATION
-------------------

General Integration Accuracy     IntAcc      ...  4.340
Radial Grid Type                 RadialGrid  ... Gauss-Chebyshev
Angular Grid (max. acc.)         AngularGrid ... Lebedev-110
Angular grid pruning method      GridPruning ... 3 (G Style)
Weight generation scheme         WeightScheme... Becke
Basis function cutoff            BFCut       ...    1.0000e-11
Integration weight cutoff        WCut        ...    1.0000e-14
Grids for H and He will be reduced by one unit

# of grid points (after initial pruning)     ...  19600 (   0.0 sec)
# of grid points (after weights+screening)   ...  17576 (   0.0 sec)
nearest neighbour list constructed           ...    0.0 sec
Grid point re-assignment to atoms done       ...    0.0 sec
Grid point division into batches done        ...    0.0 sec
Reduced shell lists constructed in    0.1 sec

Total number of grid points                  ...    17576
Total number of batches                      ...      288
Average number of points per batch           ...       61
Average number of grid points per atom       ...     1098
Average number of shells per batch           ...    90.40 (70.62%)
Average number of basis functions per batch  ...   238.07 (67.63%)
Average number of large shells per batch     ...    64.34 (71.18%)
Average number of large basis fcns per batch ...   165.68 (69.60%)
Maximum spatial batch extension              ...  16.83, 16.74, 18.13 au
Average spatial batch extension              ...   1.43,  1.39,  1.35 au

Time for grid setup =    0.097 sec

------------------------------
INITIAL GUESS: MODEL POTENTIAL
------------------------------
Loading Hartree-Fock densities                     ... done
Calculating cut-offs                               ... done
Setting up the integral package                    ... done
Initializing the effective Hamiltonian             ... done
Starting the Coulomb interaction                   ... done (   0.1 sec)
Reading the grid                                   ... done
Mapping shells                                     ... done
Starting the XC term evaluation                    ... done (   0.1 sec)
Transforming the Hamiltonian                       ... done (   0.0 sec)
Diagonalizing the Hamiltonian                      ... done (   0.0 sec)
Back transforming the eigenvectors                 ... done (   0.0 sec)
Now organizing SCF variables                       ... done
                      ------------------
                      INITIAL GUESS DONE (   0.4 sec)
                      ------------------
--------------
SCF ITERATIONS
--------------
ITER       Energy         Delta-E        Max-DP      RMS-DP      [F,P]     Damp
               ***  Starting incremental Fock matrix formation  ***
  0   -307.1673945110   0.000000000000 0.02816336  0.00059686  0.1651537 0.7000
  1   -307.2788851114  -0.111490600412 0.02075169  0.00047914  0.1241750 0.7000
                               ***Turning on DIIS***
  2   -307.3440878014  -0.065202689995 0.05032631  0.00101853  0.0927800 0.0000
  3   -306.7076856183   0.636402183143 0.01495490  0.00040185  0.0246649 0.0000
  4   -307.5858642163  -0.878178598052 0.00498125  0.00012131  0.0038489 0.0000
                      *** Initiating the SOSCF procedure ***
                           *** Shutting down DIIS ***
                      *** Re-Reading the Fockian *** 
                      *** Removing any level shift *** 
ITER      Energy       Delta-E        Grad      Rot      Max-DP    RMS-DP
  5   -307.50602822   0.0798360012  0.002110  0.002110  0.004367  0.000092
               *** Restarting incremental Fock matrix formation ***
  6   -307.48350360   0.0225246190  0.000521  0.000587  0.003245  0.000064
  7   -307.48351486  -0.0000112645  0.000191  0.000371  0.001714  0.000033
  8   -307.48351649  -0.0000016343  0.000057  0.000049  0.000178  0.000004
  9   -307.48351656  -0.0000000665  0.000030  0.000023  0.000043  0.000001
                  ***Gradient check signals convergence***
              ***Rediagonalizing the Fockian in SOSCF/NRSCF***

               *****************************************************
               *                     SUCCESS                       *
               *           SCF CONVERGED AFTER  10 CYCLES          *
               *****************************************************


----------------
TOTAL SCF ENERGY
----------------

Total Energy       :         -307.48351658 Eh           -8367.05186 eV

Components:
Nuclear Repulsion  :          366.08017816 Eh            9961.54808 eV
Electronic Energy  :         -673.56369475 Eh          -18328.59994 eV

One Electron Energy:        -1141.52766996 Eh          -31062.54709 eV
Two Electron Energy:          467.96397521 Eh           12733.94715 eV

Virial components:
Potential Energy   :         -614.36919543 Eh          -16717.83573 eV
Kinetic Energy     :          306.88567885 Eh            8350.78387 eV
Virial Ratio       :            2.00194808


---------------
SCF CONVERGENCE
---------------

  Last Energy change         ...   -2.1878e-08  Tolerance :   1.0000e-08
  Last MAX-Density change    ...    1.9483e-06  Tolerance :   1.0000e-07
  Last RMS-Density change    ...    6.9363e-08  Tolerance :   5.0000e-09
  Last Orbital Gradient      ...    9.9802e-07  Tolerance :   1.0000e-05
  Last Orbital Rotation      ...    1.9916e-06  Tolerance :   1.0000e-05

             **** THE GBW FILE WAS UPDATED (/home/vladimir/Quantum_Chemistry/ORCA/C8H8/cubane/optimize/CC/DLPNO_CCSDT/cc-pVTZ/./cubane.gbw) ****
             **** DENSITY FILE WAS UPDATED (/home/vladimir/Quantum_Chemistry/ORCA/C8H8/cubane/optimize/CC/DLPNO_CCSDT/cc-pVTZ/./cubane.scfp.tmp) ****
             **** ENERGY FILE WAS UPDATED (/home/vladimir/Quantum_Chemistry/ORCA/C8H8/cubane/optimize/CC/DLPNO_CCSDT/cc-pVTZ/./cubane.en.tmp) ****
----------------
ORBITAL ENERGIES
----------------

  NO   OCC          E(Eh)            E(eV) 
   0   2.0000     -11.223846      -305.4164 
   1   2.0000     -11.223368      -305.4034 
   2   2.0000     -11.223368      -305.4034 
   3   2.0000     -11.223368      -305.4034 
   4   2.0000     -11.222876      -305.3900 
   5   2.0000     -11.222876      -305.3900 
   6   2.0000     -11.222876      -305.3900 
   7   2.0000     -11.222364      -305.3761 
   8   2.0000      -1.236482       -33.6464 
   9   2.0000      -0.974714       -26.5233 
  10   2.0000      -0.974714       -26.5233 
  11   2.0000      -0.974714       -26.5233 
  12   2.0000      -0.767267       -20.8784 
  13   2.0000      -0.767267       -20.8784 
  14   2.0000      -0.767267       -20.8784 
  15   2.0000      -0.707745       -19.2587 
  16   2.0000      -0.642540       -17.4844 
  17   2.0000      -0.578618       -15.7450 
  18   2.0000      -0.578618       -15.7450 
  19   2.0000      -0.578618       -15.7450 
  20   2.0000      -0.575110       -15.6495 
  21   2.0000      -0.575110       -15.6495 
  22   2.0000      -0.388723       -10.5777 
  23   2.0000      -0.388723       -10.5777 
  24   2.0000      -0.388723       -10.5777 
  25   2.0000      -0.383321       -10.4307 
  26   2.0000      -0.383321       -10.4307 
  27   2.0000      -0.383321       -10.4307 
  28   0.0000       0.145655         3.9635 
  29   0.0000       0.162193         4.4135 
  30   0.0000       0.162193         4.4135 
  31   0.0000       0.162193         4.4135 
  32   0.0000       0.199344         5.4244 
  33   0.0000       0.199344         5.4244 
  34   0.0000       0.199344         5.4244 
  35   0.0000       0.219626         5.9763 
  36   0.0000       0.223780         6.0894 
  37   0.0000       0.223780         6.0894 
  38   0.0000       0.223780         6.0894 
  39   0.0000       0.346445         9.4273 
  40   0.0000       0.346445         9.4273 
  41   0.0000       0.346445         9.4273 
  42   0.0000       0.366987         9.9862 
  43   0.0000       0.366987         9.9862 
  44   0.0000       0.366987         9.9862 
  45   0.0000       0.376694        10.2504 
  46   0.0000       0.376694        10.2504 
  47   0.0000       0.378954        10.3119 
  48   0.0000       0.434756        11.8303 
  49   0.0000       0.434756        11.8303 
  50   0.0000       0.434756        11.8303 
  51   0.0000       0.480739        13.0816 
  52   0.0000       0.480739        13.0816 
  53   0.0000       0.495648        13.4873 
  54   0.0000       0.495648        13.4873 
  55   0.0000       0.495648        13.4873 
  56   0.0000       0.558641        15.2014 
  57   0.0000       0.569532        15.4977 
  58   0.0000       0.593204        16.1419 
  59   0.0000       0.593204        16.1419 
  60   0.0000       0.593204        16.1419 
  61   0.0000       0.621915        16.9232 
  62   0.0000       0.621915        16.9232 
  63   0.0000       0.621915        16.9232 
  64   0.0000       0.625782        17.0284 
  65   0.0000       0.625782        17.0284 
  66   0.0000       0.625782        17.0284 
  67   0.0000       0.645380        17.5617 
  68   0.0000       0.645380        17.5617 
  69   0.0000       0.645380        17.5617 
  70   0.0000       0.692687        18.8490 
  71   0.0000       0.692687        18.8490 
  72   0.0000       0.692687        18.8490 
  73   0.0000       0.705801        19.2058 
  74   0.0000       0.705801        19.2058 
  75   0.0000       0.727481        19.7958 
  76   0.0000       0.727481        19.7958 
  77   0.0000       0.863933        23.5088 
  78   0.0000       0.863933        23.5088 
  79   0.0000       0.863933        23.5088 
  80   0.0000       0.899074        24.4650 
  81   0.0000       0.899074        24.4650 
  82   0.0000       0.899074        24.4650 
  83   0.0000       0.904122        24.6024 
  84   0.0000       0.992583        27.0096 
  85   0.0000       1.102449        29.9992 
  86   0.0000       1.118942        30.4480 
  87   0.0000       1.118942        30.4480 
  88   0.0000       1.118942        30.4480 
  89   0.0000       1.148217        31.2446 
  90   0.0000       1.148217        31.2446 
  91   0.0000       1.148217        31.2446 
  92   0.0000       1.180509        32.1233 
  93   0.0000       1.180509        32.1233 
  94   0.0000       1.180509        32.1233 
  95   0.0000       1.194950        32.5162 
  96   0.0000       1.194950        32.5162 
  97   0.0000       1.194950        32.5162 
  98   0.0000       1.203756        32.7559 
  99   0.0000       1.203756        32.7559 
 100   0.0000       1.261220        34.3195 
 101   0.0000       1.261220        34.3195 
 102   0.0000       1.261220        34.3195 
 103   0.0000       1.308072        35.5944 
 104   0.0000       1.308072        35.5944 
 105   0.0000       1.308411        35.6037 
 106   0.0000       1.308411        35.6037 
 107   0.0000       1.308411        35.6037 
 108   0.0000       1.386430        37.7267 
 109   0.0000       1.406895        38.2836 
 110   0.0000       1.406895        38.2836 
 111   0.0000       1.432399        38.9776 
 112   0.0000       1.432399        38.9776 
 113   0.0000       1.432399        38.9776 
 114   0.0000       1.438178        39.1348 
 115   0.0000       1.438178        39.1348 
 116   0.0000       1.438178        39.1348 
 117   0.0000       1.447028        39.3756 
 118   0.0000       1.447028        39.3756 
 119   0.0000       1.447028        39.3756 
 120   0.0000       1.497570        40.7509 
 121   0.0000       1.497570        40.7509 
 122   0.0000       1.497570        40.7509 
 123   0.0000       1.525621        41.5143 
 124   0.0000       1.525621        41.5143 
 125   0.0000       1.525621        41.5143 
 126   0.0000       1.559180        42.4274 
 127   0.0000       1.605213        43.6801 
 128   0.0000       1.605213        43.6801 
 129   0.0000       1.605213        43.6801 
 130   0.0000       1.691442        46.0265 
 131   0.0000       1.691442        46.0265 
 132   0.0000       1.721142        46.8347 
 133   0.0000       1.721142        46.8347 
 134   0.0000       1.721142        46.8347 
 135   0.0000       1.787223        48.6328 
 136   0.0000       1.824036        49.6345 
 137   0.0000       1.875071        51.0233 
 138   0.0000       1.875071        51.0233 
 139   0.0000       1.875071        51.0233 
 140   0.0000       1.887331        51.3569 
 141   0.0000       1.887331        51.3569 
 142   0.0000       1.887331        51.3569 
 143   0.0000       1.998700        54.3874 
 144   0.0000       1.998700        54.3874 
 145   0.0000       1.998700        54.3874 
 146   0.0000       2.126059        57.8530 
 147   0.0000       2.126059        57.8530 
 148   0.0000       2.141213        58.2654 
 149   0.0000       2.141213        58.2654 
 150   0.0000       2.141213        58.2654 
 151   0.0000       2.230318        60.6900 
 152   0.0000       2.230318        60.6900 
 153   0.0000       2.239144        60.9302 
 154   0.0000       2.503253        68.1170 
 155   0.0000       2.503253        68.1170 
 156   0.0000       2.503253        68.1170 
 157   0.0000       2.580096        70.2080 
 158   0.0000       2.617055        71.2137 
 159   0.0000       2.620207        71.2995 
 160   0.0000       2.620207        71.2995 
 161   0.0000       2.620207        71.2995 
 162   0.0000       2.680604        72.9429 
 163   0.0000       2.680604        72.9429 
 164   0.0000       2.705417        73.6181 
 165   0.0000       2.792437        75.9861 
 166   0.0000       2.792437        75.9861 
 167   0.0000       2.792437        75.9861 
 168   0.0000       2.835639        77.1617 
 169   0.0000       2.835639        77.1617 
 170   0.0000       2.873828        78.2008 
 171   0.0000       2.873828        78.2008 
 172   0.0000       2.873828        78.2008 
 173   0.0000       2.920409        79.4684 
 174   0.0000       2.920409        79.4684 
 175   0.0000       2.920409        79.4684 
 176   0.0000       2.967806        80.7581 
 177   0.0000       2.967806        80.7581 
 178   0.0000       2.967806        80.7581 
 179   0.0000       2.980434        81.1017 
 180   0.0000       2.980434        81.1017 
 181   0.0000       2.980434        81.1017 
 182   0.0000       3.020859        82.2017 
 183   0.0000       3.020859        82.2017 
 184   0.0000       3.020859        82.2017 
 185   0.0000       3.125709        85.0549 
 186   0.0000       3.125709        85.0549 
 187   0.0000       3.125709        85.0549 
 188   0.0000       3.132431        85.2378 
 189   0.0000       3.132431        85.2378 
 190   0.0000       3.132431        85.2378 
 191   0.0000       3.273713        89.0823 
 192   0.0000       3.345351        91.0316 
 193   0.0000       3.345351        91.0316 
 194   0.0000       3.345351        91.0316 
 195   0.0000       3.386237        92.1442 
 196   0.0000       3.386237        92.1442 
 197   0.0000       3.386237        92.1442 
 198   0.0000       3.394330        92.3644 
 199   0.0000       3.419668        93.0539 
 200   0.0000       3.419668        93.0539 
 201   0.0000       3.456165        94.0470 
 202   0.0000       3.456165        94.0470 
 203   0.0000       3.456165        94.0470 
 204   0.0000       3.457970        94.0962 
 205   0.0000       3.457970        94.0962 
 206   0.0000       3.488083        94.9156 
 207   0.0000       3.488083        94.9156 
 208   0.0000       3.488083        94.9156 
 209   0.0000       3.565463        97.0212 
 210   0.0000       3.565463        97.0212 
 211   0.0000       3.565463        97.0212 
 212   0.0000       3.565816        97.0308 
 213   0.0000       3.565816        97.0308 
 214   0.0000       3.565816        97.0308 
 215   0.0000       3.567965        97.0893 
 216   0.0000       3.567965        97.0893 
 217   0.0000       3.611400        98.2712 
 218   0.0000       3.611400        98.2712 
 219   0.0000       3.611400        98.2712 
 220   0.0000       3.620721        98.5248 
 221   0.0000       3.751703       102.0890 
 222   0.0000       3.751703       102.0890 
 223   0.0000       3.793167       103.2173 
 224   0.0000       3.793167       103.2173 
 225   0.0000       3.793167       103.2173 
 226   0.0000       3.804390       103.5227 
 227   0.0000       3.804390       103.5227 
 228   0.0000       3.804390       103.5227 
 229   0.0000       3.839249       104.4713 
 230   0.0000       3.839249       104.4713 
 231   0.0000       3.839249       104.4713 
 232   0.0000       3.855776       104.9210 
 233   0.0000       3.855776       104.9210 
 234   0.0000       3.855776       104.9210 
 235   0.0000       3.883724       105.6815 
 236   0.0000       3.931197       106.9733 
 237   0.0000       3.931197       106.9733 
 238   0.0000       3.931197       106.9733 
 239   0.0000       3.955710       107.6403 
 240   0.0000       3.955710       107.6403 
 241   0.0000       3.955710       107.6403 
 242   0.0000       4.030746       109.6822 
 243   0.0000       4.030746       109.6822 
 244   0.0000       4.030746       109.6822 
 245   0.0000       4.121926       112.1633 
 246   0.0000       4.121926       112.1633 
 247   0.0000       4.121927       112.1633 
 248   0.0000       4.135580       112.5349 
 249   0.0000       4.136167       112.5508 
 250   0.0000       4.136167       112.5508 
 251   0.0000       4.136167       112.5508 
 252   0.0000       4.156884       113.1146 
 253   0.0000       4.156884       113.1146 
 254   0.0000       4.206754       114.4716 
 255   0.0000       4.206754       114.4716 
 256   0.0000       4.206754       114.4716 
 257   0.0000       4.217577       114.7661 
 258   0.0000       4.217577       114.7661 
 259   0.0000       4.217577       114.7661 
 260   0.0000       4.303765       117.1114 
 261   0.0000       4.303765       117.1114 
 262   0.0000       4.303765       117.1114 
 263   0.0000       4.345918       118.2584 
 264   0.0000       4.345918       118.2584 
 265   0.0000       4.356508       118.5466 
 266   0.0000       4.356508       118.5466 
 267   0.0000       4.378167       119.1360 
 268   0.0000       4.378167       119.1360 
 269   0.0000       4.409339       119.9842 
 270   0.0000       4.409339       119.9842 
 271   0.0000       4.409339       119.9842 
 272   0.0000       4.420742       120.2945 
 273   0.0000       4.471639       121.6795 
 274   0.0000       4.471639       121.6795 
 275   0.0000       4.471639       121.6795 
 276   0.0000       4.504731       122.5800 
 277   0.0000       4.504731       122.5800 
 278   0.0000       4.504731       122.5800 
 279   0.0000       4.516626       122.9036 
 280   0.0000       4.541189       123.5720 
 281   0.0000       4.541189       123.5720 
 282   0.0000       4.541189       123.5720 
 283   0.0000       4.602987       125.2536 
 284   0.0000       4.655765       126.6898 
 285   0.0000       4.655765       126.6898 
 286   0.0000       4.655765       126.6898 
 287   0.0000       4.678148       127.2989 
 288   0.0000       4.678148       127.2989 
 289   0.0000       4.759025       129.4996 
 290   0.0000       4.759025       129.4996 
 291   0.0000       4.759025       129.4996 
 292   0.0000       4.901195       133.3683 
 293   0.0000       4.901195       133.3683 
 294   0.0000       4.901195       133.3683 
 295   0.0000       4.909271       133.5881 
 296   0.0000       4.909271       133.5881 
 297   0.0000       4.909271       133.5881 
 298   0.0000       4.949440       134.6811 
 299   0.0000       4.949440       134.6811 
 300   0.0000       4.949440       134.6811 
 301   0.0000       5.063925       137.7964 
 302   0.0000       5.063925       137.7964 
 303   0.0000       5.099090       138.7533 
 304   0.0000       5.099090       138.7533 
 305   0.0000       5.099090       138.7533 
 306   0.0000       5.186149       141.1223 
 307   0.0000       5.186149       141.1223 
 308   0.0000       5.343471       145.4032 
 309   0.0000       5.343471       145.4032 
 310   0.0000       5.343471       145.4032 
 311   0.0000       5.344205       145.4232 
 312   0.0000       5.410300       147.2217 
 313   0.0000       5.410300       147.2217 
 314   0.0000       5.410300       147.2217 
 315   0.0000       5.415822       147.3720 
 316   0.0000       5.420857       147.5090 
 317   0.0000       5.420857       147.5090 
 318   0.0000       5.420857       147.5090 
 319   0.0000       5.433847       147.8625 
 320   0.0000       5.433847       147.8625 
 321   0.0000       5.433847       147.8625 
 322   0.0000       5.482533       149.1873 
 323   0.0000       5.482533       149.1873 
 324   0.0000       5.482533       149.1873 
 325   0.0000       5.509436       149.9194 
 326   0.0000       5.509436       149.9194 
 327   0.0000       5.643146       153.5578 
 328   0.0000       5.888302       160.2288 
 329   0.0000       5.888302       160.2288 
 330   0.0000       5.888302       160.2288 
 331   0.0000       5.937134       161.5576 
 332   0.0000       5.937134       161.5576 
 333   0.0000       5.937134       161.5576 
 334   0.0000       5.943847       161.7403 
 335   0.0000       5.943847       161.7403 
 336   0.0000       5.943847       161.7403 
 337   0.0000       6.056708       164.8114 
 338   0.0000       6.384422       173.7290 
 339   0.0000       6.384423       173.7290 
 340   0.0000       6.384423       173.7290 
 341   0.0000       6.387286       173.8069 
 342   0.0000       6.387286       173.8069 
 343   0.0000       6.931995       188.6292 
 344   0.0000      10.751175       292.5544 
 345   0.0000      11.753563       319.8307 
 346   0.0000      11.753563       319.8307 
 347   0.0000      11.753563       319.8307 
 348   0.0000      13.144134       357.6701 
 349   0.0000      13.144134       357.6701 
 350   0.0000      13.144134       357.6701 
 351   0.0000      13.290798       361.6610 

                    ********************************
                    * MULLIKEN POPULATION ANALYSIS *
                    ********************************

-----------------------
MULLIKEN ATOMIC CHARGES
-----------------------
   0 H :    0.143352
   1 H :    0.143352
   2 H :    0.143352
   3 H :    0.143352
   4 H :    0.143352
   5 H :    0.143352
   6 H :    0.143352
   7 H :    0.143352
   8 C :   -0.143352
   9 C :   -0.143352
  10 C :   -0.143352
  11 C :   -0.143352
  12 C :   -0.143352
  13 C :   -0.143352
  14 C :   -0.143352
  15 C :   -0.143352
Sum of atomic charges:    0.0000000

--------------------------------
MULLIKEN REDUCED ORBITAL CHARGES
--------------------------------
  0 H s       :     0.829715  s :     0.829715
      pz      :     0.008308  p :     0.024925
      px      :     0.008308
      py      :     0.008308
      dz2     :     0.000536  d :     0.002008
      dxz     :     0.000312
      dyz     :     0.000312
      dx2y2   :     0.000536
      dxy     :     0.000312
  1 H s       :     0.829715  s :     0.829715
      pz      :     0.008308  p :     0.024925
      px      :     0.008308
      py      :     0.008308
      dz2     :     0.000536  d :     0.002008
      dxz     :     0.000312
      dyz     :     0.000312
      dx2y2   :     0.000536
      dxy     :     0.000312
  2 H s       :     0.829715  s :     0.829715
      pz      :     0.008308  p :     0.024925
      px      :     0.008308
      py      :     0.008308
      dz2     :     0.000536  d :     0.002008
      dxz     :     0.000312
      dyz     :     0.000312
      dx2y2   :     0.000536
      dxy     :     0.000312
  3 H s       :     0.829715  s :     0.829715
      pz      :     0.008308  p :     0.024925
      px      :     0.008308
      py      :     0.008308
      dz2     :     0.000536  d :     0.002008
      dxz     :     0.000312
      dyz     :     0.000312
      dx2y2   :     0.000536
      dxy     :     0.000312
  4 H s       :     0.829715  s :     0.829715
      pz      :     0.008308  p :     0.024925
      px      :     0.008308
      py      :     0.008308
      dz2     :     0.000536  d :     0.002008
      dxz     :     0.000312
      dyz     :     0.000312
      dx2y2   :     0.000536
      dxy     :     0.000312
  5 H s       :     0.829715  s :     0.829715
      pz      :     0.008308  p :     0.024925
      px      :     0.008308
      py      :     0.008308
      dz2     :     0.000536  d :     0.002008
      dxz     :     0.000312
      dyz     :     0.000312
      dx2y2   :     0.000536
      dxy     :     0.000312
  6 H s       :     0.829715  s :     0.829715
      pz      :     0.008308  p :     0.024925
      px      :     0.008308
      py      :     0.008308
      dz2     :     0.000536  d :     0.002008
      dxz     :     0.000312
      dyz     :     0.000312
      dx2y2   :     0.000536
      dxy     :     0.000312
  7 H s       :     0.829715  s :     0.829715
      pz      :     0.008308  p :     0.024925
      px      :     0.008308
      py      :     0.008308
      dz2     :     0.000536  d :     0.002008
      dxz     :     0.000312
      dyz     :     0.000312
      dx2y2   :     0.000536
      dxy     :     0.000312
  8 C s       :     3.257534  s :     3.257534
      pz      :     0.919017  p :     2.757051
      px      :     0.919017
      py      :     0.919017
      dz2     :     0.027933  d :     0.119318
      dxz     :     0.021151
      dyz     :     0.021151
      dx2y2   :     0.027933
      dxy     :     0.021151
      f0      :     0.001990  f :     0.009450
      f+1     :     0.001317
      f-1     :     0.001317
      f+2     :     0.000913
      f-2     :     0.000739
      f+3     :     0.001586
      f-3     :     0.001586
  9 C s       :     3.257534  s :     3.257534
      pz      :     0.919017  p :     2.757051
      px      :     0.919017
      py      :     0.919017
      dz2     :     0.027933  d :     0.119318
      dxz     :     0.021151
      dyz     :     0.021151
      dx2y2   :     0.027933
      dxy     :     0.021151
      f0      :     0.001990  f :     0.009450
      f+1     :     0.001317
      f-1     :     0.001317
      f+2     :     0.000913
      f-2     :     0.000739
      f+3     :     0.001586
      f-3     :     0.001586
 10 C s       :     3.257534  s :     3.257534
      pz      :     0.919017  p :     2.757051
      px      :     0.919017
      py      :     0.919017
      dz2     :     0.027933  d :     0.119318
      dxz     :     0.021151
      dyz     :     0.021151
      dx2y2   :     0.027933
      dxy     :     0.021151
      f0      :     0.001990  f :     0.009450
      f+1     :     0.001317
      f-1     :     0.001317
      f+2     :     0.000913
      f-2     :     0.000739
      f+3     :     0.001586
      f-3     :     0.001586
 11 C s       :     3.257534  s :     3.257534
      pz      :     0.919017  p :     2.757051
      px      :     0.919017
      py      :     0.919017
      dz2     :     0.027933  d :     0.119318
      dxz     :     0.021151
      dyz     :     0.021151
      dx2y2   :     0.027933
      dxy     :     0.021151
      f0      :     0.001990  f :     0.009450
      f+1     :     0.001317
      f-1     :     0.001317
      f+2     :     0.000913
      f-2     :     0.000739
      f+3     :     0.001586
      f-3     :     0.001586
 12 C s       :     3.257534  s :     3.257534
      pz      :     0.919017  p :     2.757051
      px      :     0.919017
      py      :     0.919017
      dz2     :     0.027933  d :     0.119318
      dxz     :     0.021151
      dyz     :     0.021151
      dx2y2   :     0.027933
      dxy     :     0.021151
      f0      :     0.001990  f :     0.009450
      f+1     :     0.001317
      f-1     :     0.001317
      f+2     :     0.000913
      f-2     :     0.000739
      f+3     :     0.001586
      f-3     :     0.001586
 13 C s       :     3.257534  s :     3.257534
      pz      :     0.919017  p :     2.757051
      px      :     0.919017
      py      :     0.919017
      dz2     :     0.027933  d :     0.119318
      dxz     :     0.021151
      dyz     :     0.021151
      dx2y2   :     0.027933
      dxy     :     0.021151
      f0      :     0.001990  f :     0.009450
      f+1     :     0.001317
      f-1     :     0.001317
      f+2     :     0.000913
      f-2     :     0.000739
      f+3     :     0.001586
      f-3     :     0.001586
 14 C s       :     3.257534  s :     3.257534
      pz      :     0.919017  p :     2.757051
      px      :     0.919017
      py      :     0.919017
      dz2     :     0.027933  d :     0.119318
      dxz     :     0.021151
      dyz     :     0.021151
      dx2y2   :     0.027933
      dxy     :     0.021151
      f0      :     0.001990  f :     0.009450
      f+1     :     0.001317
      f-1     :     0.001317
      f+2     :     0.000913
      f-2     :     0.000739
      f+3     :     0.001586
      f-3     :     0.001586
 15 C s       :     3.257534  s :     3.257534
      pz      :     0.919017  p :     2.757051
      px      :     0.919017
      py      :     0.919017
      dz2     :     0.027933  d :     0.119318
      dxz     :     0.021151
      dyz     :     0.021151
      dx2y2   :     0.027933
      dxy     :     0.021151
      f0      :     0.001990  f :     0.009450
      f+1     :     0.001317
      f-1     :     0.001317
      f+2     :     0.000913
      f-2     :     0.000739
      f+3     :     0.001586
      f-3     :     0.001586


                     *******************************
                     * LOEWDIN POPULATION ANALYSIS *
                     *******************************

----------------------
LOEWDIN ATOMIC CHARGES
----------------------
   0 H :   -0.061717
   1 H :   -0.061717
   2 H :   -0.061717
   3 H :   -0.061717
   4 H :   -0.061717
   5 H :   -0.061717
   6 H :   -0.061717
   7 H :   -0.061717
   8 C :    0.061717
   9 C :    0.061717
  10 C :    0.061717
  11 C :    0.061717
  12 C :    0.061717
  13 C :    0.061717
  14 C :    0.061717
  15 C :    0.061717

-------------------------------
LOEWDIN REDUCED ORBITAL CHARGES
-------------------------------
  0 H s       :     0.871658  s :     0.871658
      pz      :     0.054254  p :     0.162761
      px      :     0.054254
      py      :     0.054254
      dz2     :     0.006279  d :     0.027298
      dxz     :     0.004913
      dyz     :     0.004913
      dx2y2   :     0.006279
      dxy     :     0.004913
  1 H s       :     0.871658  s :     0.871658
      pz      :     0.054254  p :     0.162761
      px      :     0.054254
      py      :     0.054254
      dz2     :     0.006279  d :     0.027298
      dxz     :     0.004913
      dyz     :     0.004913
      dx2y2   :     0.006279
      dxy     :     0.004913
  2 H s       :     0.871658  s :     0.871658
      pz      :     0.054254  p :     0.162761
      px      :     0.054254
      py      :     0.054254
      dz2     :     0.006279  d :     0.027298
      dxz     :     0.004913
      dyz     :     0.004913
      dx2y2   :     0.006279
      dxy     :     0.004913
  3 H s       :     0.871658  s :     0.871658
      pz      :     0.054254  p :     0.162761
      px      :     0.054254
      py      :     0.054254
      dz2     :     0.006279  d :     0.027298
      dxz     :     0.004913
      dyz     :     0.004913
      dx2y2   :     0.006279
      dxy     :     0.004913
  4 H s       :     0.871658  s :     0.871658
      pz      :     0.054254  p :     0.162761
      px      :     0.054254
      py      :     0.054254
      dz2     :     0.006279  d :     0.027298
      dxz     :     0.004913
      dyz     :     0.004913
      dx2y2   :     0.006279
      dxy     :     0.004913
  5 H s       :     0.871658  s :     0.871658
      pz      :     0.054254  p :     0.162761
      px      :     0.054254
      py      :     0.054254
      dz2     :     0.006279  d :     0.027298
      dxz     :     0.004913
      dyz     :     0.004913
      dx2y2   :     0.006279
      dxy     :     0.004913
  6 H s       :     0.871658  s :     0.871658
      pz      :     0.054254  p :     0.162761
      px      :     0.054254
      py      :     0.054254
      dz2     :     0.006279  d :     0.027298
      dxz     :     0.004913
      dyz     :     0.004913
      dx2y2   :     0.006279
      dxy     :     0.004913
  7 H s       :     0.871658  s :     0.871658
      pz      :     0.054254  p :     0.162761
      px      :     0.054254
      py      :     0.054254
      dz2     :     0.006279  d :     0.027298
      dxz     :     0.004913
      dyz     :     0.004913
      dx2y2   :     0.006279
      dxy     :     0.004913
  8 C s       :     2.679308  s :     2.679308
      pz      :     0.911443  p :     2.734328
      px      :     0.911443
      py      :     0.911443
      dz2     :     0.095081  d :     0.469475
      dxz     :     0.093104
      dyz     :     0.093104
      dx2y2   :     0.095081
      dxy     :     0.093104
      f0      :     0.010535  f :     0.055172
      f+1     :     0.008364
      f-1     :     0.008364
      f+2     :     0.007062
      f-2     :     0.002381
      f+3     :     0.009233
      f-3     :     0.009233
  9 C s       :     2.679308  s :     2.679308
      pz      :     0.911443  p :     2.734328
      px      :     0.911443
      py      :     0.911443
      dz2     :     0.095081  d :     0.469475
      dxz     :     0.093104
      dyz     :     0.093104
      dx2y2   :     0.095081
      dxy     :     0.093104
      f0      :     0.010535  f :     0.055172
      f+1     :     0.008364
      f-1     :     0.008364
      f+2     :     0.007062
      f-2     :     0.002381
      f+3     :     0.009233
      f-3     :     0.009233
 10 C s       :     2.679308  s :     2.679308
      pz      :     0.911443  p :     2.734328
      px      :     0.911443
      py      :     0.911443
      dz2     :     0.095081  d :     0.469475
      dxz     :     0.093104
      dyz     :     0.093104
      dx2y2   :     0.095081
      dxy     :     0.093104
      f0      :     0.010535  f :     0.055172
      f+1     :     0.008364
      f-1     :     0.008364
      f+2     :     0.007062
      f-2     :     0.002381
      f+3     :     0.009233
      f-3     :     0.009233
 11 C s       :     2.679308  s :     2.679308
      pz      :     0.911443  p :     2.734328
      px      :     0.911443
      py      :     0.911443
      dz2     :     0.095081  d :     0.469475
      dxz     :     0.093104
      dyz     :     0.093104
      dx2y2   :     0.095081
      dxy     :     0.093104
      f0      :     0.010535  f :     0.055172
      f+1     :     0.008364
      f-1     :     0.008364
      f+2     :     0.007062
      f-2     :     0.002381
      f+3     :     0.009233
      f-3     :     0.009233
 12 C s       :     2.679308  s :     2.679308
      pz      :     0.911443  p :     2.734328
      px      :     0.911443
      py      :     0.911443
      dz2     :     0.095081  d :     0.469475
      dxz     :     0.093104
      dyz     :     0.093104
      dx2y2   :     0.095081
      dxy     :     0.093104
      f0      :     0.010535  f :     0.055172
      f+1     :     0.008364
      f-1     :     0.008364
      f+2     :     0.007062
      f-2     :     0.002381
      f+3     :     0.009233
      f-3     :     0.009233
 13 C s       :     2.679308  s :     2.679308
      pz      :     0.911443  p :     2.734328
      px      :     0.911443
      py      :     0.911443
      dz2     :     0.095081  d :     0.469475
      dxz     :     0.093104
      dyz     :     0.093104
      dx2y2   :     0.095081
      dxy     :     0.093104
      f0      :     0.010535  f :     0.055172
      f+1     :     0.008364
      f-1     :     0.008364
      f+2     :     0.007062
      f-2     :     0.002381
      f+3     :     0.009233
      f-3     :     0.009233
 14 C s       :     2.679308  s :     2.679308
      pz      :     0.911443  p :     2.734328
      px      :     0.911443
      py      :     0.911443
      dz2     :     0.095081  d :     0.469475
      dxz     :     0.093104
      dyz     :     0.093104
      dx2y2   :     0.095081
      dxy     :     0.093104
      f0      :     0.010535  f :     0.055172
      f+1     :     0.008364
      f-1     :     0.008364
      f+2     :     0.007062
      f-2     :     0.002381
      f+3     :     0.009233
      f-3     :     0.009233
 15 C s       :     2.679308  s :     2.679308
      pz      :     0.911443  p :     2.734328
      px      :     0.911443
      py      :     0.911443
      dz2     :     0.095081  d :     0.469475
      dxz     :     0.093104
      dyz     :     0.093104
      dx2y2   :     0.095081
      dxy     :     0.093104
      f0      :     0.010535  f :     0.055172
      f+1     :     0.008364
      f-1     :     0.008364
      f+2     :     0.007062
      f-2     :     0.002381
      f+3     :     0.009233
      f-3     :     0.009233


                      *****************************
                      * MAYER POPULATION ANALYSIS *
                      *****************************

  NA   - Mulliken gross atomic population
  ZA   - Total nuclear charge
  QA   - Mulliken gross atomic charge
  VA   - Mayer's total valence
  BVA  - Mayer's bonded valence
  FA   - Mayer's free valence

  ATOM       NA         ZA         QA         VA         BVA        FA
  0 H      0.8566     1.0000     0.1434     0.9738     0.9738     0.0000
  1 H      0.8566     1.0000     0.1434     0.9738     0.9738     0.0000
  2 H      0.8566     1.0000     0.1434     0.9738     0.9738    -0.0000
  3 H      0.8566     1.0000     0.1434     0.9738     0.9738    -0.0000
  4 H      0.8566     1.0000     0.1434     0.9738     0.9738    -0.0000
  5 H      0.8566     1.0000     0.1434     0.9738     0.9738    -0.0000
  6 H      0.8566     1.0000     0.1434     0.9738     0.9738     0.0000
  7 H      0.8566     1.0000     0.1434     0.9738     0.9738    -0.0000
  8 C      6.1434     6.0000    -0.1434     3.6921     3.6921     0.0000
  9 C      6.1434     6.0000    -0.1434     3.6921     3.6921     0.0000
 10 C      6.1434     6.0000    -0.1434     3.6921     3.6921     0.0000
 11 C      6.1434     6.0000    -0.1434     3.6921     3.6921    -0.0000
 12 C      6.1434     6.0000    -0.1434     3.6921     3.6921    -0.0000
 13 C      6.1434     6.0000    -0.1434     3.6921     3.6921    -0.0000
 14 C      6.1434     6.0000    -0.1434     3.6921     3.6921     0.0000
 15 C      6.1434     6.0000    -0.1434     3.6921     3.6921    -0.0000

  Mayer bond orders larger than 0.1
B(  0-H ,  8-C ) :   0.9585 B(  1-H ,  9-C ) :   0.9585 B(  2-H , 10-C ) :   0.9585 
B(  3-H , 11-C ) :   0.9585 B(  4-H , 12-C ) :   0.9585 B(  5-H , 13-C ) :   0.9585 
B(  6-H , 14-C ) :   0.9585 B(  7-H , 15-C ) :   0.9585 B(  8-C , 13-C ) :   0.9448 
B(  8-C , 14-C ) :   0.9448 B(  8-C , 15-C ) :   0.9448 B(  9-C , 12-C ) :   0.9448 
B(  9-C , 14-C ) :   0.9448 B(  9-C , 15-C ) :   0.9448 B( 10-C , 12-C ) :   0.9448 
B( 10-C , 13-C ) :   0.9448 B( 10-C , 15-C ) :   0.9448 B( 11-C , 12-C ) :   0.9448 
B( 11-C , 13-C ) :   0.9448 B( 11-C , 14-C ) :   0.9448 

-------
TIMINGS
-------

Total SCF time: 0 days 0 hours 3 min 2 sec 

Total time                  ....     182.234 sec
Sum of individual times     ....     182.636 sec  (100.2%)

Fock matrix formation       ....     181.604 sec  ( 99.7%)
Diagonalization             ....       0.275 sec  (  0.2%)
Density matrix formation    ....       0.010 sec  (  0.0%)
Population analysis         ....       0.115 sec  (  0.1%)
Initial guess               ....       0.403 sec  (  0.2%)
Orbital Transformation      ....       0.000 sec  (  0.0%)
Orbital Orthonormalization  ....       0.000 sec  (  0.0%)
DIIS solution               ....       0.050 sec  (  0.0%)
SOSCF solution              ....       0.082 sec  (  0.0%)
           ************************************************************
           *              Shut down parallel processing               *
           ************************************************************


           ************************************************************
           *        Program running with 4 parallel MPI-processes     *
           *              working on a common directory               *
           ************************************************************
-------------------------------------------------------------------------------
                              ORCA-MATRIX DRIVEN CI
-------------------------------------------------------------------------------


Wavefunction type
-----------------
Correlation treatment                      ...      CCSD     
Single excitations                         ... ON
Orbital optimization                       ... OFF
Calculation of Z vector                    ... OFF
Calculation of Brueckner orbitals          ... OFF
Perturbative triple excitations            ... ON
Calculation of F12 correction              ... OFF
Frozen core treatment                      ... chemical core (16 el)
Reference Wavefunction                     ... RHF
  Internal Orbitals:     8 ...   27 ( 20 MO's/ 40 electrons)
  Virtual  Orbitals:    28 ...  351 (324 MO's              )
Number of AO's                             ...    352
Number of electrons                        ...     56
Number of correlated electrons             ...     40

Algorithmic settings
--------------------
Integral transformation                    ... All integrals via the RI transformation
K(C) Formation                             ... RI-DLPNO
   PNO-Integral Storage                    ... ON DISK
   PNO occupation number cut-off           ... 3.330e-07
   Singles PNO occupation number cut-off   ... 9.990e-09
   PNO Mulliken prescreening cut-off       ... 1.000e-03
   Domain cut-off (Mulliken population)    ... 1.000e-03
   PNO Normalization                       ...    1
Maximum number of iterations               ...        50
Convergence tolerance (max. residuum)      ... 1.000e-05
Level shift for amplitude update           ... 2.000e-01
Maximum number of DIIS vectors             ...         7
DIIS turned on at iteration                ...         0
Damping before turning on DIIS             ...     0.500
Damping after turning on DIIS              ...     0.000
Pair specific amplitude update             ... OFF
Natural orbital iterations                 ... OFF
Perturbative natural orbital generation    ... OFF
Printlevel                                 ... 2

Memory handling:
----------------
Maximum memory for working arrays          ...   1000 MB
Data storage in matrix containers          ... UNCOMPRESSED
Data type for integral storage             ... DOUBLE
In-Core Storage of quantities:
   Amplitudes+Sigma Vector      ... NO
   J+K operators                ... NO
   DIIS vectors                 ... NO
   3-external integrals         ... NO
   4-external integrals         ... NO

Localization treatment:
-----------------------
Localization option                        ...    1
Neglect threshold for strong pairs         ... 1.000e-04 Eh
Prescreening threshold for very weak pairs ... 1.000e-06 Eh

Initializing the integral package          ... done
Localizing the valence orbitals
------------------------------------------------------------------------------
                           ORCA ORBITAL LOCALIZATION
------------------------------------------------------------------------------

Input orbitals are from        ... /home/vladimir/Quantum_Chemistry/ORCA/C8H8/cubane/optimize/CC/DLPNO_CCSDT/cc-pVTZ/./cubane.gbw
Output orbitals are to         ... /home/vladimir/Quantum_Chemistry/ORCA/C8H8/cubane/optimize/CC/DLPNO_CCSDT/cc-pVTZ/./cubane.loc
Max. number of iterations      ... 128
Convergence tolerance          ... 1.000e-06
Treshold for strong local MOs  ... 9.500e-01
Treshold for bond MOs          ... 8.500e-01
Operator                       ... 0
Orbital range for localization ... 8 to 27
Localization criterion         ... FOSTER-BOYS
Doing the dipole integrals     ... o.k.
Entering Jacobi type localization:
Initial value of the localization sum :     0.000000
ITERATION   0 : L=  167.5569714100 DL=  1.68e+02 (MAX-T)=  45.000 
ITERATION   1 : L=  192.4231125884 DL=  2.49e+01 (MAX-T)=  29.963 
ITERATION   2 : L=  192.4391560928 DL=  1.60e-02 (MAX-T)=   0.727 
ITERATION   3 : L=  192.4391826929 DL=  2.66e-05 (MAX-T)=   0.053 
ITERATION   4 : L=  192.4391827340 DL=  4.11e-08 (MAX-T)=   0.003 
LOCALIZATION SUM CONVERGED

----------------------------------------
LOCALIZED MOLECULAR ORBITAL COMPOSITIONS
----------------------------------------

The Mulliken populations for each LMO on each atom are computed
The LMO`s will be ordered according to atom index and type
  (A) Strongly localized MO`s have populations of >=0.950 on one atom
  (B) Two center bond orbitals have populations of >=0.850 on two atoms
  (C) Other MO`s are considered to be `delocalized`

FOUND  -   0 strongly local MO`s
       -  20 two center bond MO`s
       -   0 significantly delocalized MO`s

Bond-like localized orbitals:
MO  27:  15C  -   0.543239  and  10C  -   0.543239
MO  26:  15C  -   0.543239  and   9C  -   0.543239
MO  25:  15C  -   0.543239  and   8C  -   0.543239
MO  24:  15C  -   0.576856  and   7H  -   0.441114
MO  23:  14C  -   0.543239  and  11C  -   0.543239
MO  22:  14C  -   0.543239  and   9C  -   0.543239
MO  21:  14C  -   0.543239  and   8C  -   0.543239
MO  20:  14C  -   0.576856  and   6H  -   0.441114
MO  19:  13C  -   0.543239  and  11C  -   0.543239
MO  18:  13C  -   0.543239  and  10C  -   0.543239
MO  17:  13C  -   0.543239  and   8C  -   0.543239
MO  16:  13C  -   0.576856  and   5H  -   0.441114
MO  15:  12C  -   0.543239  and  11C  -   0.543239
MO  14:  12C  -   0.543239  and  10C  -   0.543239
MO  13:  12C  -   0.543239  and   9C  -   0.543239
MO  12:  12C  -   0.576856  and   4H  -   0.441114
MO  11:  11C  -   0.576856  and   3H  -   0.441114
MO  10:  10C  -   0.576856  and   2H  -   0.441114
MO   9:   9C  -   0.576856  and   1H  -   0.441114
MO   8:   8C  -   0.576855  and   0H  -   0.441114
Localized MO's were stored in: /home/vladimir/Quantum_Chemistry/ORCA/C8H8/cubane/optimize/CC/DLPNO_CCSDT/cc-pVTZ/./cubane.loc
Localizing the core orbitals
Warning: internal orbitals are localized - no re-canonicalization of internal orbitals
Time needed for Fock operator              ...           34.450 sec
Reference energy                           ...   -307.483516576

--------------
DLPNO SETTINGS
--------------

TCutMKN:           1.000e-03
TCutPAO:           1.000e-03
TCutPNO:           3.330e-07
TCutPNOSingles:    9.990e-09
TCutPAOExt:        1.000e-01
TCutPairs:         1.000e-04
TCutPre:           1.000e-06
TCutOSV:           1.000e-06
TCutC:             1.000e-04
LocalTrafoType:    1
TCutTNO:           1.000e-07
TCutMP2Pairs:      1.000e-05
TCutMKNStrong:     1.000e-02
TCutMKNWeak:       1.000e-01
NTCutTNO:          1

--------------------------

-----------------
RI-TRANSFORMATION (AUX index driven)
-----------------

Dimension of the orbital-basis                ... 352
Dimension of the aux-basis                    ... 888
Transformation of internal MOs                ...    8-  27
Transformation of internal MOs/PAOs           ...    8-  27 to   28- 379
Transformation of internal MOs/VMOs           ...    8-  27 to   28- 352
Orthogonalization of internal MOs/PAOs        ...    8-  27 to   28- 379
Transformation of PAOs                        ...   28- 379
Orthogonalization of PAOs                     ...   28- 379
Number Format for Storage                      ... Double (8 Byte)
Integral mode                                  ... Direct

First Phase: integral generation and transformation of MO indices
  Aux angular momentum 0               ... done (    0.211 sec)
  Aux angular momentum 1               ... done (    0.396 sec)
  Aux angular momentum 2               ... done (    0.512 sec)
  Aux angular momentum 3               ... done (    0.403 sec)
  Aux angular momentum 4               ... done (    0.127 sec)
Closing buffer VIJ    ( 0.00 GB; CompressionRatio= 1.89)
Closing buffer VIAPAO ( 0.01 GB; CompressionRatio= 1.00)
Closing buffer VIAVMO ( 0.01 GB; CompressionRatio= 1.00)
Closing buffer VABPAO ( 0.10 GB; CompressionRatio= 1.99)
  Phase 1 completed in     1.719 sec

--------------------
RI-METRIC GENERATION
--------------------

Time for V**-1/2 generation:     0.145 sec
[...]
      dyz     :     0.000446
      dx2y2   :     0.000702
      dxy     :     0.000446
  8 C s       :     3.249083  s :     3.249083
      pz      :     0.921091  p :     2.763273
      px      :     0.921091
      py      :     0.921091
      dz2     :     0.025695  d :     0.131920
      dxz     :     0.026844
      dyz     :     0.026844
      dx2y2   :     0.025695
      dxy     :     0.026844
      f0      :     0.002409  f :     0.013556
      f+1     :     0.001926
      f-1     :     0.001926
      f+2     :     0.001636
      f-2     :     0.001421
      f+3     :     0.002119
      f-3     :     0.002119
  9 C s       :     3.249083  s :     3.249083
      pz      :     0.921091  p :     2.763274
      px      :     0.921091
      py      :     0.921091
      dz2     :     0.025695  d :     0.131920
      dxz     :     0.026844
      dyz     :     0.026844
      dx2y2   :     0.025695
      dxy     :     0.026844
      f0      :     0.002409  f :     0.013556
      f+1     :     0.001926
      f-1     :     0.001926
      f+2     :     0.001636
      f-2     :     0.001421
      f+3     :     0.002119
      f-3     :     0.002119
 10 C s       :     3.249083  s :     3.249083
      pz      :     0.921091  p :     2.763274
      px      :     0.921091
      py      :     0.921091
      dz2     :     0.025695  d :     0.131920
      dxz     :     0.026844
      dyz     :     0.026844
      dx2y2   :     0.025695
      dxy     :     0.026844
      f0      :     0.002409  f :     0.013556
      f+1     :     0.001926
      f-1     :     0.001926
      f+2     :     0.001636
      f-2     :     0.001421
      f+3     :     0.002119
      f-3     :     0.002119
 11 C s       :     3.249083  s :     3.249083
      pz      :     0.921091  p :     2.763273
      px      :     0.921091
      py      :     0.921091
      dz2     :     0.025695  d :     0.131920
      dxz     :     0.026844
      dyz     :     0.026844
      dx2y2   :     0.025695
      dxy     :     0.026844
      f0      :     0.002409  f :     0.013556
      f+1     :     0.001926
      f-1     :     0.001926
      f+2     :     0.001636
      f-2     :     0.001421
      f+3     :     0.002119
      f-3     :     0.002119
 12 C s       :     3.249083  s :     3.249083
      pz      :     0.921091  p :     2.763274
      px      :     0.921091
      py      :     0.921091
      dz2     :     0.025695  d :     0.131920
      dxz     :     0.026844
      dyz     :     0.026844
      dx2y2   :     0.025695
      dxy     :     0.026844
      f0      :     0.002409  f :     0.013556
      f+1     :     0.001926
      f-1     :     0.001926
      f+2     :     0.001636
      f-2     :     0.001421
      f+3     :     0.002119
      f-3     :     0.002119
 13 C s       :     3.249083  s :     3.249083
      pz      :     0.921091  p :     2.763274
      px      :     0.921091
      py      :     0.921091
      dz2     :     0.025695  d :     0.131920
      dxz     :     0.026844
      dyz     :     0.026844
      dx2y2   :     0.025695
      dxy     :     0.026844
      f0      :     0.002409  f :     0.013556
      f+1     :     0.001926
      f-1     :     0.001926
      f+2     :     0.001636
      f-2     :     0.001421
      f+3     :     0.002119
      f-3     :     0.002119
 14 C s       :     3.249083  s :     3.249083
      pz      :     0.921091  p :     2.763274
      px      :     0.921091
      py      :     0.921091
      dz2     :     0.025695  d :     0.131920
      dxz     :     0.026844
      dyz     :     0.026844
      dx2y2   :     0.025695
      dxy     :     0.026844
      f0      :     0.002409  f :     0.013556
      f+1     :     0.001926
      f-1     :     0.001926
      f+2     :     0.001636
      f-2     :     0.001421
      f+3     :     0.002119
      f-3     :     0.002119
 15 C s       :     3.249083  s :     3.249083
      pz      :     0.921091  p :     2.763274
      px      :     0.921091
      py      :     0.921091
      dz2     :     0.025695  d :     0.131920
      dxz     :     0.026844
      dyz     :     0.026844
      dx2y2   :     0.025695
      dxy     :     0.026844
      f0      :     0.002409  f :     0.013556
      f+1     :     0.001926
      f-1     :     0.001926
      f+2     :     0.001636
      f-2     :     0.001421
      f+3     :     0.002119
      f-3     :     0.002119


                     *******************************
                     * LOEWDIN POPULATION ANALYSIS *
                     *******************************

----------------------
LOEWDIN ATOMIC CHARGES
----------------------
   0 H :   -0.058271
   1 H :   -0.058271
   2 H :   -0.058271
   3 H :   -0.058271
   4 H :   -0.058271
   5 H :   -0.058271
   6 H :   -0.058271
   7 H :   -0.058271
   8 C :    0.058271
   9 C :    0.058271
  10 C :    0.058271
  11 C :    0.058271
  12 C :    0.058271
  13 C :    0.058271
  14 C :    0.058271
  15 C :    0.058271

-------------------------------
LOEWDIN REDUCED ORBITAL CHARGES
-------------------------------
  0 H s       :     0.854387  s :     0.854387
      pz      :     0.057913  p :     0.173740
      px      :     0.057913
      py      :     0.057913
      dz2     :     0.006598  d :     0.030144
      dxz     :     0.005650
      dyz     :     0.005650
      dx2y2   :     0.006598
      dxy     :     0.005650
  1 H s       :     0.854387  s :     0.854387
      pz      :     0.057913  p :     0.173740
      px      :     0.057913
      py      :     0.057913
      dz2     :     0.006598  d :     0.030144
      dxz     :     0.005650
      dyz     :     0.005650
      dx2y2   :     0.006598
      dxy     :     0.005650
  2 H s       :     0.854387  s :     0.854387
      pz      :     0.057913  p :     0.173740
      px      :     0.057913
      py      :     0.057913
      dz2     :     0.006598  d :     0.030144
      dxz     :     0.005650
      dyz     :     0.005650
      dx2y2   :     0.006598
      dxy     :     0.005650
  3 H s       :     0.854387  s :     0.854387
      pz      :     0.057913  p :     0.173740
      px      :     0.057913
      py      :     0.057913
      dz2     :     0.006598  d :     0.030144
      dxz     :     0.005650
      dyz     :     0.005650
      dx2y2   :     0.006598
      dxy     :     0.005650
  4 H s       :     0.854387  s :     0.854387
      pz      :     0.057913  p :     0.173740
      px      :     0.057913
      py      :     0.057913
      dz2     :     0.006598  d :     0.030144
      dxz     :     0.005650
      dyz     :     0.005650
      dx2y2   :     0.006598
      dxy     :     0.005650
  5 H s       :     0.854387  s :     0.854387
      pz      :     0.057913  p :     0.173740
      px      :     0.057913
      py      :     0.057913
      dz2     :     0.006598  d :     0.030144
      dxz     :     0.005650
      dyz     :     0.005650
      dx2y2   :     0.006598
      dxy     :     0.005650
  6 H s       :     0.854387  s :     0.854387
      pz      :     0.057913  p :     0.173740
      px      :     0.057913
      py      :     0.057913
      dz2     :     0.006598  d :     0.030144
      dxz     :     0.005650
      dyz     :     0.005650
      dx2y2   :     0.006598
      dxy     :     0.005650
  7 H s       :     0.854387  s :     0.854387
      pz      :     0.057913  p :     0.173740
      px      :     0.057913
      py      :     0.057913
      dz2     :     0.006598  d :     0.030144
      dxz     :     0.005650
      dyz     :     0.005650
      dx2y2   :     0.006598
      dxy     :     0.005650
  8 C s       :     2.678471  s :     2.678471
      pz      :     0.905752  p :     2.717256
      px      :     0.905752
      py      :     0.905752
      dz2     :     0.096386  d :     0.483718
      dxz     :     0.096982
      dyz     :     0.096982
      dx2y2   :     0.096386
      dxy     :     0.096982
      f0      :     0.011787  f :     0.062283
      f+1     :     0.009349
      f-1     :     0.009349
      f+2     :     0.007886
      f-2     :     0.003266
      f+3     :     0.010324
      f-3     :     0.010324
  9 C s       :     2.678472  s :     2.678472
      pz      :     0.905752  p :     2.717256
      px      :     0.905752
      py      :     0.905752
      dz2     :     0.096386  d :     0.483718
      dxz     :     0.096982
      dyz     :     0.096982
      dx2y2   :     0.096386
      dxy     :     0.096982
      f0      :     0.011787  f :     0.062283
      f+1     :     0.009349
      f-1     :     0.009349
      f+2     :     0.007886
      f-2     :     0.003266
      f+3     :     0.010324
      f-3     :     0.010324
 10 C s       :     2.678472  s :     2.678472
      pz      :     0.905752  p :     2.717256
      px      :     0.905752
      py      :     0.905752
      dz2     :     0.096386  d :     0.483718
      dxz     :     0.096982
      dyz     :     0.096982
      dx2y2   :     0.096386
      dxy     :     0.096982
      f0      :     0.011787  f :     0.062283
      f+1     :     0.009349
      f-1     :     0.009349
      f+2     :     0.007886
      f-2     :     0.003266
      f+3     :     0.010324
      f-3     :     0.010324
 11 C s       :     2.678472  s :     2.678472
      pz      :     0.905752  p :     2.717256
      px      :     0.905752
      py      :     0.905752
      dz2     :     0.096386  d :     0.483718
      dxz     :     0.096982
      dyz     :     0.096982
      dx2y2   :     0.096386
      dxy     :     0.096982
      f0      :     0.011787  f :     0.062283
      f+1     :     0.009349
      f-1     :     0.009349
      f+2     :     0.007886
      f-2     :     0.003266
      f+3     :     0.010324
      f-3     :     0.010324
 12 C s       :     2.678472  s :     2.678472
      pz      :     0.905752  p :     2.717256
      px      :     0.905752
      py      :     0.905752
      dz2     :     0.096386  d :     0.483718
      dxz     :     0.096982
      dyz     :     0.096982
      dx2y2   :     0.096386
      dxy     :     0.096982
      f0      :     0.011787  f :     0.062283
      f+1     :     0.009349
      f-1     :     0.009349
      f+2     :     0.007886
      f-2     :     0.003266
      f+3     :     0.010324
      f-3     :     0.010324
 13 C s       :     2.678471  s :     2.678471
      pz      :     0.905752  p :     2.717256
      px      :     0.905752
      py      :     0.905752
      dz2     :     0.096386  d :     0.483718
      dxz     :     0.096982
      dyz     :     0.096982
      dx2y2   :     0.096386
      dxy     :     0.096982
      f0      :     0.011787  f :     0.062283
      f+1     :     0.009349
      f-1     :     0.009349
      f+2     :     0.007886
      f-2     :     0.003266
      f+3     :     0.010324
      f-3     :     0.010324
 14 C s       :     2.678472  s :     2.678472
      pz      :     0.905752  p :     2.717256
      px      :     0.905752
      py      :     0.905752
      dz2     :     0.096386  d :     0.483718
      dxz     :     0.096982
      dyz     :     0.096982
      dx2y2   :     0.096386
      dxy     :     0.096982
      f0      :     0.011787  f :     0.062283
      f+1     :     0.009349
      f-1     :     0.009349
      f+2     :     0.007886
      f-2     :     0.003266
      f+3     :     0.010324
      f-3     :     0.010324
 15 C s       :     2.678471  s :     2.678471
      pz      :     0.905752  p :     2.717256
      px      :     0.905752
      py      :     0.905752
      dz2     :     0.096386  d :     0.483718
      dxz     :     0.096982
      dyz     :     0.096982
      dx2y2   :     0.096386
      dxy     :     0.096982
      f0      :     0.011787  f :     0.062283
      f+1     :     0.009349
      f-1     :     0.009349
      f+2     :     0.007886
      f-2     :     0.003266
      f+3     :     0.010324
      f-3     :     0.010324


                      *****************************
                      * MAYER POPULATION ANALYSIS *
                      *****************************

  NA   - Mulliken gross atomic population
  ZA   - Total nuclear charge
  QA   - Mulliken gross atomic charge
  VA   - Mayer's total valence
  BVA  - Mayer's bonded valence
  FA   - Mayer's free valence

  ATOM       NA         ZA         QA         VA         BVA        FA
  0 H      0.8422     1.0000     0.1578     0.9816     0.9140     0.0676
  1 H      0.8422     1.0000     0.1578     0.9816     0.9140     0.0676
  2 H      0.8422     1.0000     0.1578     0.9816     0.9140     0.0676
  3 H      0.8422     1.0000     0.1578     0.9816     0.9140     0.0676
  4 H      0.8422     1.0000     0.1578     0.9816     0.9140     0.0676
  5 H      0.8422     1.0000     0.1578     0.9816     0.9140     0.0676
  6 H      0.8422     1.0000     0.1578     0.9816     0.9140     0.0676
  7 H      0.8422     1.0000     0.1578     0.9816     0.9140     0.0676
  8 C      6.1578     6.0000    -0.1578     3.8340     3.4505     0.3835
  9 C      6.1578     6.0000    -0.1578     3.8340     3.4505     0.3835
 10 C      6.1578     6.0000    -0.1578     3.8340     3.4505     0.3835
 11 C      6.1578     6.0000    -0.1578     3.8340     3.4505     0.3835
 12 C      6.1578     6.0000    -0.1578     3.8340     3.4505     0.3835
 13 C      6.1578     6.0000    -0.1578     3.8340     3.4505     0.3835
 14 C      6.1578     6.0000    -0.1578     3.8340     3.4505     0.3835
 15 C      6.1578     6.0000    -0.1578     3.8340     3.4505     0.3835

  Mayer bond orders larger than 0.1
B(  0-H ,  8-C ) :   0.8957 B(  1-H ,  9-C ) :   0.8957 B(  2-H , 10-C ) :   0.8957 
B(  3-H , 11-C ) :   0.8957 B(  4-H , 12-C ) :   0.8957 B(  5-H , 13-C ) :   0.8957 
B(  6-H , 14-C ) :   0.8957 B(  7-H , 15-C ) :   0.8957 B(  8-C , 13-C ) :   0.8749 
B(  8-C , 14-C ) :   0.8749 B(  8-C , 15-C ) :   0.8749 B(  9-C , 12-C ) :   0.8749 
B(  9-C , 14-C ) :   0.8749 B(  9-C , 15-C ) :   0.8749 B( 10-C , 12-C ) :   0.8749 
B( 10-C , 13-C ) :   0.8749 B( 10-C , 15-C ) :   0.8749 B( 11-C , 12-C ) :   0.8749 
B( 11-C , 13-C ) :   0.8749 B( 11-C , 14-C ) :   0.8749 

-------
TIMINGS
-------

Total execution time                   ...      757.329 sec

Localization of occupied MO's          ...        0.274 sec (  0.0%)
Fock Matrix Formation                  ...       34.533 sec (  4.6%)
First Half Transformation              ...        4.988 sec (  0.7%)
RI-PNO integral transformation         ...       89.118 sec ( 11.8%)
Initial Guess                          ...       12.709 sec (  1.7%)
DIIS Solver                            ...        0.398 sec (  0.1%)
State Vector Update                    ...        0.009 sec (  0.0%)
Sigma-vector construction              ...      223.391 sec ( 29.5%)
  <0|H|S>                              ...        1.513 sec (  0.7% of sigma)
  <D|H|D>(0-ext)                       ...        5.258 sec (  2.4% of sigma)
  <D|H|D>(2-ext Fock)                  ...        0.019 sec (  0.0% of sigma)
  <D|H|D>(2-ext)                       ...       18.674 sec (  8.4% of sigma)
  <D|H|D>(4-ext)                       ...        8.802 sec (  3.9% of sigma)
  <D|H|D>(4-ext-corr)                  ...       39.702 sec ( 17.8% of sigma)
  CCSD doubles correction              ...        0.269 sec (  0.1% of sigma)
  <S|H|S>                              ...        0.482 sec (  0.2% of sigma)
  <S|H|D>(1-ext)                       ...        0.025 sec (  0.0% of sigma)
  <D|H|S>(1-ext)                       ...        0.405 sec (  0.2% of sigma)
  <S|H|D>(3-ext)                       ...        0.382 sec (  0.2% of sigma)
  Fock-dressing                        ...        7.250 sec (  3.2% of sigma)
  Singles Fock matrix                  ...      131.100 sec ( 58.7% of sigma)
  Singles amplitudes                   ...        0.192 sec (  0.1% of sigma)
  (ik|jl)-dressing                     ...        2.421 sec (  1.1% of sigma)
  (ij|ab),(ia|jb)-dressing             ...        1.819 sec (  0.8% of sigma)
  Pair energies                        ...        0.006 sec (  0.0% of sigma)
Total Time for computing (T)           ...      370.499 sec ( 48.9% of ALL)

           ************************************************************
           *              Shut down parallel processing               *
           ************************************************************

-------------------------   --------------------
FINAL SINGLE POINT ENERGY      -308.878529182021
-------------------------   --------------------

                                *** OPTIMIZATION RUN DONE ***

                            ***************************************
                            *     ORCA property calculations      *
                            ***************************************

                                    ---------------------
                                    Active property flags
                                    ---------------------
   (+) Dipole Moment


------------------------------------------------------------------------------
                       ORCA ELECTRIC PROPERTIES CALCULATION
------------------------------------------------------------------------------

Dipole Moment Calculation                       ... on
Quadrupole Moment Calculation                   ... off
Polarizability Calculation                      ... off
GBWName                                         ... /home/vladimir/Quantum_Chemistry/ORCA/C8H8/cubane/optimize/CC/DLPNO_CCSDT/cc-pVTZ/./cubane.gbw
Electron density file                           ... /home/vladimir/Quantum_Chemistry/ORCA/C8H8/cubane/optimize/CC/DLPNO_CCSDT/cc-pVTZ/./cubane.scfp.tmp

-------------
DIPOLE MOMENT
-------------
                                X             Y             Z
Electronic contribution:      0.00000      -0.00000      -0.00000
Nuclear contribution   :     -0.00000       0.00000       0.00000
                        -----------------------------------------
Total Dipole Moment    :     -0.00000       0.00000       0.00000
                        -----------------------------------------
Magnitude (a.u.)       :      0.00000
Magnitude (Debye)      :      0.00000


                           *** MDCI DENSITY ***

------------------------------------------------------------------------------
                       ORCA ELECTRIC PROPERTIES CALCULATION
------------------------------------------------------------------------------

Dipole Moment Calculation                       ... on
Quadrupole Moment Calculation                   ... off
Polarizability Calculation                      ... off
GBWName                                         ... /home/vladimir/Quantum_Chemistry/ORCA/C8H8/cubane/optimize/CC/DLPNO_CCSDT/cc-pVTZ/./cubane.gbw
Electron density file                           ... /home/vladimir/Quantum_Chemistry/ORCA/C8H8/cubane/optimize/CC/DLPNO_CCSDT/cc-pVTZ/./cubane.mdcip.tmp

-------------
DIPOLE MOMENT
-------------
                                X             Y             Z
Electronic contribution:      0.00000      -0.00000      -0.00000
Nuclear contribution   :     -0.00000       0.00000       0.00000
                        -----------------------------------------
Total Dipole Moment    :     -0.00000       0.00000       0.00000
                        -----------------------------------------
Magnitude (a.u.)       :      0.00000
Magnitude (Debye)      :      0.00000


Timings for individual modules:

Sum of individual times         ...   231713.605 sec (=3861.893 min)
GTO integral calculation        ...        4.761 sec (=   0.079 min)   0.0 %
SCF iterations                  ...      555.383 sec (=   9.256 min)   0.2 %
MDCI module                     ...     5434.989 sec (=  90.583 min)   2.3 %
SCF Gradient evaluation         ...   225716.614 sec (=3761.944 min)  97.4 %
Geometry relaxation             ...        1.858 sec (=   0.031 min)   0.0 %
                             ****ORCA TERMINATED NORMALLY****
TOTAL RUN TIME: 2 days 15 hours 40 minutes 0 seconds 903 msec
