 argument  1 = cubane.nw
                                         
                                         


              Northwest Computational Chemistry Package (NWChem) 6.3
              ------------------------------------------------------


                    Environmental Molecular Sciences Laboratory
                       Pacific Northwest National Laboratory
                                Richland, WA 99352

                              Copyright (c) 1994-2013
                       Pacific Northwest National Laboratory
                            Battelle Memorial Institute

             NWChem is an open-source computational chemistry package
                        distributed under the terms of the
                      Educational Community License (ECL) 2.0
             A copy of the license is included with this distribution
                              in the LICENSE.TXT file

                                  ACKNOWLEDGMENT
                                  --------------

            This software and its documentation were developed at the
            EMSL at Pacific Northwest National Laboratory, a multiprogram
            national laboratory, operated for the U.S. Department of Energy
            by Battelle under Contract Number DE-AC05-76RL01830. Support
            for this work was provided by the Department of Energy Office
            of Biological and Environmental Research, Office of Basic
            Energy Sciences, and the Office of Advanced Scientific Computing.


           Job information
           ---------------

    hostname        = kbob-G41MT-S2
    program         = nwchem
    date            = Fri May 23 23:06:57 2014

    compiled        = Вт._мая_20_20:17:42_2014
    source          = /opt/Nwchem-6.3.revision25564-src.2014-05-03
    nwchem branch   = Development
    nwchem revision = 25564
    ga revision     = 10486
    input           = cubane.nw
    prefix          = cubane.
    data base       = /mnt/scratch/cubane.db
    status          = startup
    nproc           =        1
    time left       =     -1s



           Memory information
           ------------------

    heap     =   13107194 doubles =    100.0 Mbytes
    stack    =   13107199 doubles =    100.0 Mbytes
    global   =  262144000 doubles =   2000.0 Mbytes (distinct from heap & stack)
    total    =  288358393 doubles =   2200.0 Mbytes
    verify   = yes
    hardfail = no 


           Directory information
           ---------------------

  0 permanent = /mnt/scratch
  0 scratch   = /mnt/scratch




                                NWChem Input Module
                                -------------------


                          cubane CCSD(T)/cc-pVDZ optimize
                          -------------------------------

 Scaling coordinates for geometry "geometry" by  1.889725989
 (inverse scale =  0.529177249)

 Turning off AUTOSYM since
 SYMMETRY directive was detected!


          ------
          auto-z
          ------


                             Geometry "geometry" -> ""
                             -------------------------

 Output coordinates in angstroms (scale by  1.889725989 to convert to a.u.)

  No.       Tag          Charge          X              Y              Z
 ---- ---------------- ---------- -------------- -------------- --------------
    1 H                    1.0000     1.42890000     1.42890000     1.42890000
    2 H                    1.0000    -1.42890000    -1.42890000     1.42890000
    3 H                    1.0000    -1.42890000     1.42890000    -1.42890000
    4 H                    1.0000     1.42890000    -1.42890000    -1.42890000
    5 H                    1.0000    -1.42890000    -1.42890000    -1.42890000
    6 H                    1.0000     1.42890000     1.42890000    -1.42890000
    7 H                    1.0000     1.42890000    -1.42890000     1.42890000
    8 H                    1.0000    -1.42890000     1.42890000     1.42890000
    9 C                    6.0000     0.79210000     0.79210000     0.79210000
   10 C                    6.0000    -0.79210000    -0.79210000     0.79210000
   11 C                    6.0000    -0.79210000     0.79210000    -0.79210000
   12 C                    6.0000     0.79210000    -0.79210000    -0.79210000
   13 C                    6.0000    -0.79210000    -0.79210000    -0.79210000
   14 C                    6.0000     0.79210000     0.79210000    -0.79210000
   15 C                    6.0000     0.79210000    -0.79210000     0.79210000
   16 C                    6.0000    -0.79210000     0.79210000     0.79210000

      Atomic Mass 
      ----------- 

      H                  1.007825
      C                 12.000000


 Effective nuclear repulsion energy (a.u.)     363.5363870677

            Nuclear Dipole moment (a.u.) 
            ----------------------------
        X                 Y               Z
 ---------------- ---------------- ----------------
     0.0000000000     0.0000000000     0.0000000000

      Symmetry information
      --------------------

 Group name             D2h       
 Group number             26
 Group order               8
 No. of unique centers     2

      Symmetry unique atoms

     1    9



                                Z-matrix (autoz)
                                -------- 

 Units are Angstrom for bonds and degrees for angles

      Type          Name      I     J     K     L     M      Value
      ----------- --------  ----- ----- ----- ----- ----- ----------
    1 Stretch                  1     9                       1.10297
    2 Stretch                  2    10                       1.10297
    3 Stretch                  3    11                       1.10297
    4 Stretch                  4    12                       1.10297
    5 Stretch                  5    13                       1.10297
    6 Stretch                  6    14                       1.10297
    7 Stretch                  7    15                       1.10297
    8 Stretch                  8    16                       1.10297
    9 Stretch                  9    14                       1.58420
   10 Stretch                  9    15                       1.58420
   11 Stretch                  9    16                       1.58420
   12 Stretch                 10    13                       1.58420
   13 Stretch                 10    15                       1.58420
   14 Stretch                 10    16                       1.58420
   15 Stretch                 11    13                       1.58420
   16 Stretch                 11    14                       1.58420
   17 Stretch                 11    16                       1.58420
   18 Stretch                 12    13                       1.58420
   19 Stretch                 12    14                       1.58420
   20 Stretch                 12    15                       1.58420
   21 Bend                     1     9    14               125.26439
   22 Bend                     1     9    15               125.26439
   23 Bend                     1     9    16               125.26439
   24 Bend                     2    10    13               125.26439
   25 Bend                     2    10    15               125.26439
   26 Bend                     2    10    16               125.26439
   27 Bend                     3    11    13               125.26439
   28 Bend                     3    11    14               125.26439
   29 Bend                     3    11    16               125.26439
   30 Bend                     4    12    13               125.26439
   31 Bend                     4    12    14               125.26439
   32 Bend                     4    12    15               125.26439
   33 Bend                     5    13    10               125.26439
   34 Bend                     5    13    11               125.26439
   35 Bend                     5    13    12               125.26439
   36 Bend                     6    14     9               125.26439
   37 Bend                     6    14    11               125.26439
   38 Bend                     6    14    12               125.26439
   39 Bend                     7    15     9               125.26439
   40 Bend                     7    15    10               125.26439
   41 Bend                     7    15    12               125.26439
   42 Bend                     8    16     9               125.26439
   43 Bend                     8    16    10               125.26439
   44 Bend                     8    16    11               125.26439
   45 Bend                     9    14    11                90.00000
   46 Bend                     9    14    12                90.00000
   47 Bend                     9    15    10                90.00000
   48 Bend                     9    15    12                90.00000
   49 Bend                     9    16    10                90.00000
   50 Bend                     9    16    11                90.00000
   51 Bend                    10    13    11                90.00000
   52 Bend                    10    13    12                90.00000
   53 Bend                    10    15    12                90.00000
   54 Bend                    10    16    11                90.00000
   55 Bend                    11    13    12                90.00000
   56 Bend                    11    14    12                90.00000
   57 Bend                    13    10    15                90.00000
   58 Bend                    13    10    16                90.00000
   59 Bend                    13    11    14                90.00000
   60 Bend                    13    11    16                90.00000
   61 Bend                    13    12    14                90.00000
   62 Bend                    13    12    15                90.00000
   63 Bend                    14     9    15                90.00000
   64 Bend                    14     9    16                90.00000
   65 Bend                    14    11    16                90.00000
   66 Bend                    14    12    15                90.00000
   67 Bend                    15     9    16                90.00000
   68 Bend                    15    10    16                90.00000
   69 Torsion                  1     9    14     6           0.00000
   70 Torsion                  1     9    14    11        -135.00000
   71 Torsion                  1     9    14    12         135.00000
   72 Torsion                  1     9    15     7           0.00000
   73 Torsion                  1     9    15    10         135.00000
   74 Torsion                  1     9    15    12        -135.00000
   75 Torsion                  1     9    16     8           0.00000
   76 Torsion                  1     9    16    10        -135.00000
   77 Torsion                  1     9    16    11         135.00000
   78 Torsion                  2    10    13     5           0.00000
   79 Torsion                  2    10    13    11         135.00000
   80 Torsion                  2    10    13    12        -135.00000
   81 Torsion                  2    10    15     7           0.00000
   82 Torsion                  2    10    15     9        -135.00000
   83 Torsion                  2    10    15    12         135.00000
   84 Torsion                  2    10    16     8           0.00000
   85 Torsion                  2    10    16     9         135.00000
   86 Torsion                  2    10    16    11        -135.00000
   87 Torsion                  3    11    13     5           0.00000
   88 Torsion                  3    11    13    10        -135.00000
   89 Torsion                  3    11    13    12         135.00000
   90 Torsion                  3    11    14     6           0.00000
   91 Torsion                  3    11    14     9         135.00000
   92 Torsion                  3    11    14    12        -135.00000
   93 Torsion                  3    11    16     8           0.00000
   94 Torsion                  3    11    16     9        -135.00000
   95 Torsion                  3    11    16    10         135.00000
   96 Torsion                  4    12    13     5           0.00000
   97 Torsion                  4    12    13    10         135.00000
   98 Torsion                  4    12    13    11        -135.00000
   99 Torsion                  4    12    14     6           0.00000
  100 Torsion                  4    12    14     9        -135.00000
  101 Torsion                  4    12    14    11         135.00000
  102 Torsion                  4    12    15     7           0.00000
  103 Torsion                  4    12    15     9         135.00000
  104 Torsion                  4    12    15    10        -135.00000
  105 Torsion                  5    13    10    15         135.00000
  106 Torsion                  5    13    10    16        -135.00000
  107 Torsion                  5    13    11    14        -135.00000
  108 Torsion                  5    13    11    16         135.00000
  109 Torsion                  5    13    12    14         135.00000
  110 Torsion                  5    13    12    15        -135.00000
  111 Torsion                  6    14     9    15        -135.00000
  112 Torsion                  6    14     9    16         135.00000
  113 Torsion                  6    14    11    13         135.00000
  114 Torsion                  6    14    11    16        -135.00000
  115 Torsion                  6    14    12    13        -135.00000
  116 Torsion                  6    14    12    15         135.00000
  117 Torsion                  7    15     9    14         135.00000
  118 Torsion                  7    15     9    16        -135.00000
  119 Torsion                  7    15    10    13        -135.00000
  120 Torsion                  7    15    10    16         135.00000
  121 Torsion                  7    15    12    13         135.00000
  122 Torsion                  7    15    12    14        -135.00000
  123 Torsion                  8    16     9    14        -135.00000
  124 Torsion                  8    16     9    15         135.00000
  125 Torsion                  8    16    10    13         135.00000
  126 Torsion                  8    16    10    15        -135.00000
  127 Torsion                  8    16    11    13        -135.00000
  128 Torsion                  8    16    11    14         135.00000
  129 Torsion                  9    14    11    13         -90.00000
  130 Torsion                  9    14    11    16           0.00000
  131 Torsion                  9    14    12    13          90.00000
  132 Torsion                  9    14    12    15           0.00000
  133 Torsion                  9    15    10    13          90.00000
  134 Torsion                  9    15    10    16           0.00000
  135 Torsion                  9    15    12    13         -90.00000
  136 Torsion                  9    15    12    14           0.00000
  137 Torsion                  9    16    10    13         -90.00000
  138 Torsion                  9    16    10    15           0.00000
  139 Torsion                  9    16    11    13          90.00000
  140 Torsion                  9    16    11    14           0.00000
  141 Torsion                 10    13    11    14          90.00000
  142 Torsion                 10    13    11    16           0.00000
  143 Torsion                 10    13    12    14         -90.00000
  144 Torsion                 10    13    12    15           0.00000
  145 Torsion                 10    15     9    14         -90.00000
  146 Torsion                 10    15     9    16           0.00000
  147 Torsion                 10    15    12    13           0.00000
  148 Torsion                 10    15    12    14          90.00000
  149 Torsion                 10    16     9    14          90.00000
  150 Torsion                 10    16     9    15           0.00000
  151 Torsion                 10    16    11    13           0.00000
  152 Torsion                 10    16    11    14         -90.00000
  153 Torsion                 11    13    10    15         -90.00000
  154 Torsion                 11    13    10    16           0.00000
  155 Torsion                 11    13    12    14           0.00000
  156 Torsion                 11    13    12    15          90.00000
  157 Torsion                 11    14     9    15          90.00000
  158 Torsion                 11    14     9    16           0.00000
  159 Torsion                 11    14    12    13           0.00000
  160 Torsion                 11    14    12    15         -90.00000
  161 Torsion                 11    16     9    14           0.00000
  162 Torsion                 11    16     9    15         -90.00000
  163 Torsion                 11    16    10    13           0.00000
  164 Torsion                 11    16    10    15          90.00000
  165 Torsion                 12    13    10    15           0.00000
  166 Torsion                 12    13    10    16          90.00000
  167 Torsion                 12    13    11    14           0.00000
  168 Torsion                 12    13    11    16         -90.00000
  169 Torsion                 12    14     9    15           0.00000
  170 Torsion                 12    14     9    16         -90.00000
  171 Torsion                 12    14    11    13           0.00000
  172 Torsion                 12    14    11    16          90.00000
  173 Torsion                 12    15     9    14           0.00000
  174 Torsion                 12    15     9    16          90.00000
  175 Torsion                 12    15    10    13           0.00000
  176 Torsion                 12    15    10    16         -90.00000


            XYZ format geometry
            -------------------
    16
 geometry
 H                     1.42890000     1.42890000     1.42890000
 H                    -1.42890000    -1.42890000     1.42890000
 H                    -1.42890000     1.42890000    -1.42890000
 H                     1.42890000    -1.42890000    -1.42890000
 H                    -1.42890000    -1.42890000    -1.42890000
 H                     1.42890000     1.42890000    -1.42890000
 H                     1.42890000    -1.42890000     1.42890000
 H                    -1.42890000     1.42890000     1.42890000
 C                     0.79210000     0.79210000     0.79210000
 C                    -0.79210000    -0.79210000     0.79210000
 C                    -0.79210000     0.79210000    -0.79210000
 C                     0.79210000    -0.79210000    -0.79210000
 C                    -0.79210000    -0.79210000    -0.79210000
 C                     0.79210000     0.79210000    -0.79210000
 C                     0.79210000    -0.79210000     0.79210000
 C                    -0.79210000     0.79210000     0.79210000

 ==============================================================================
                                internuclear distances
 ------------------------------------------------------------------------------
       center one      |      center two      | atomic units |  angstroms
 ------------------------------------------------------------------------------
    9 C                |   1 H                |     2.08431  |     1.10297
   10 C                |   2 H                |     2.08431  |     1.10297
   11 C                |   3 H                |     2.08431  |     1.10297
   12 C                |   4 H                |     2.08431  |     1.10297
   13 C                |   5 H                |     2.08431  |     1.10297
   13 C                |  10 C                |     2.99370  |     1.58420
   13 C                |  11 C                |     2.99370  |     1.58420
   13 C                |  12 C                |     2.99370  |     1.58420
   14 C                |   6 H                |     2.08431  |     1.10297
   14 C                |   9 C                |     2.99370  |     1.58420
   14 C                |  11 C                |     2.99370  |     1.58420
   14 C                |  12 C                |     2.99370  |     1.58420
   15 C                |   7 H                |     2.08431  |     1.10297
   15 C                |   9 C                |     2.99370  |     1.58420
   15 C                |  10 C                |     2.99370  |     1.58420
   15 C                |  12 C                |     2.99370  |     1.58420
   16 C                |   8 H                |     2.08431  |     1.10297
   16 C                |   9 C                |     2.99370  |     1.58420
   16 C                |  10 C                |     2.99370  |     1.58420
   16 C                |  11 C                |     2.99370  |     1.58420
 ------------------------------------------------------------------------------
                         number of included internuclear distances:         20
 ==============================================================================



 ==============================================================================
                                 internuclear angles
 ------------------------------------------------------------------------------
        center 1       |       center 2       |       center 3       |  degrees
 ------------------------------------------------------------------------------
    1 H                |   9 C                |  14 C                |   125.26
    1 H                |   9 C                |  15 C                |   125.26
    1 H                |   9 C                |  16 C                |   125.26
   14 C                |   9 C                |  15 C                |    90.00
   14 C                |   9 C                |  16 C                |    90.00
   15 C                |   9 C                |  16 C                |    90.00
    2 H                |  10 C                |  13 C                |   125.26
    2 H                |  10 C                |  15 C                |   125.26
    2 H                |  10 C                |  16 C                |   125.26
   13 C                |  10 C                |  15 C                |    90.00
   13 C                |  10 C                |  16 C                |    90.00
   15 C                |  10 C                |  16 C                |    90.00
    3 H                |  11 C                |  13 C                |   125.26
    3 H                |  11 C                |  14 C                |   125.26
    3 H                |  11 C                |  16 C                |   125.26
   13 C                |  11 C                |  14 C                |    90.00
   13 C                |  11 C                |  16 C                |    90.00
   14 C                |  11 C                |  16 C                |    90.00
    4 H                |  12 C                |  13 C                |   125.26
    4 H                |  12 C                |  14 C                |   125.26
    4 H                |  12 C                |  15 C                |   125.26
   13 C                |  12 C                |  14 C                |    90.00
   13 C                |  12 C                |  15 C                |    90.00
   14 C                |  12 C                |  15 C                |    90.00
    5 H                |  13 C                |  10 C                |   125.26
    5 H                |  13 C                |  11 C                |   125.26
    5 H                |  13 C                |  12 C                |   125.26
   10 C                |  13 C                |  11 C                |    90.00
   10 C                |  13 C                |  12 C                |    90.00
   11 C                |  13 C                |  12 C                |    90.00
    6 H                |  14 C                |   9 C                |   125.26
    6 H                |  14 C                |  11 C                |   125.26
    6 H                |  14 C                |  12 C                |   125.26
    9 C                |  14 C                |  11 C                |    90.00
    9 C                |  14 C                |  12 C                |    90.00
   11 C                |  14 C                |  12 C                |    90.00
    7 H                |  15 C                |   9 C                |   125.26
    7 H                |  15 C                |  10 C                |   125.26
    7 H                |  15 C                |  12 C                |   125.26
    9 C                |  15 C                |  10 C                |    90.00
    9 C                |  15 C                |  12 C                |    90.00
   10 C                |  15 C                |  12 C                |    90.00
    8 H                |  16 C                |   9 C                |   125.26
    8 H                |  16 C                |  10 C                |   125.26
    8 H                |  16 C                |  11 C                |   125.26
    9 C                |  16 C                |  10 C                |    90.00
    9 C                |  16 C                |  11 C                |    90.00
   10 C                |  16 C                |  11 C                |    90.00
 ------------------------------------------------------------------------------
                            number of included internuclear angles:         48
 ==============================================================================



  library name resolved from: environment
  library file name is: </opt/Nwchem-6.3.revision25564-src.2014-05-03/src/basis/libraries/>
  
                      Basis "ao basis" -> "" (spherical)
                      -----
  H (Hydrogen)
  ------------
            Exponent  Coefficients 
       -------------- ---------------------------------------------------------
  1 S  1.30100000E+01  0.019685
  1 S  1.96200000E+00  0.137977
  1 S  4.44600000E-01  0.478148

  2 S  1.22000000E-01  1.000000

  3 P  7.27000000E-01  1.000000

  C (Carbon)
  ----------
            Exponent  Coefficients 
       -------------- ---------------------------------------------------------
  1 S  6.66500000E+03  0.000692
  1 S  1.00000000E+03  0.005329
  1 S  2.28000000E+02  0.027077
  1 S  6.47100000E+01  0.101718
  1 S  2.10600000E+01  0.274740
  1 S  7.49500000E+00  0.448564
  1 S  2.79700000E+00  0.285074
  1 S  5.21500000E-01  0.015204

  2 S  6.66500000E+03 -0.000146
  2 S  1.00000000E+03 -0.001154
  2 S  2.28000000E+02 -0.005725
  2 S  6.47100000E+01 -0.023312
  2 S  2.10600000E+01 -0.063955
  2 S  7.49500000E+00 -0.149981
  2 S  2.79700000E+00 -0.127262
  2 S  5.21500000E-01  0.544529

  3 S  1.59600000E-01  1.000000

  4 P  9.43900000E+00  0.038109
  4 P  2.00200000E+00  0.209480
  4 P  5.45600000E-01  0.508557

  5 P  1.51700000E-01  1.000000

  6 D  5.50000000E-01  1.000000



 Summary of "ao basis" -> "" (spherical)
 ------------------------------------------------------------------------------
       Tag                 Description            Shells   Functions and Types
 ---------------- ------------------------------  ------  ---------------------
 H                          cc-pVDZ                  3        5   2s1p
 C                          cc-pVDZ                  6       14   3s2p1d




                           NWChem Geometry Optimization
                           ----------------------------




                          cubane CCSD(T)/cc-pVDZ optimize


 maximum gradient threshold         (gmax) =   0.000450
 rms gradient threshold             (grms) =   0.000300
 maximum cartesian step threshold   (xmax) =   0.001800
 rms cartesian step threshold       (xrms) =   0.001200
 fixed trust radius                (trust) =   0.300000
 maximum step size to saddle      (sadstp) =   0.100000
 energy precision                  (eprec) =   1.0D-07
 maximum number of steps          (nptopt) =   20
 initial hessian option           (inhess) =    0
 line search option               (linopt) =    1
 hessian update option            (modupd) =    1
 saddle point option              (modsad) =    0
 initial eigen-mode to follow     (moddir) =    0
 initial variable to follow       (vardir) =    0
 follow first negative mode     (firstneg) =    T
 apply conjugacy                    (opcg) =    F
 source of zmatrix                         =   autoz   


          -------------------
          Energy Minimization
          -------------------


 Names of Z-matrix variables 
    1              2              3              4              5         
    6              7              8              9             10         
   11             12             13             14             15         
   16             17             18             19             20         
   21             22             23             24             25         
   26             27             28             29             30         
   31             32             33             34             35         
   36             37             38             39             40         
   41             42             43             44             45         
   46             47             48             49             50         
   51             52             53             54             55         
   56             57             58             59             60         
   61             62             63             64             65         
   66             67             68             69             70         
   71             72             73             74             75         
   76             77             78             79             80         
   81             82             83             84             85         
   86             87             88             89             90         
   91             92             93             94             95         
   96             97             98             99            100         
  101            102            103            104            105         
  106            107            108            109            110         
  111            112            113            114            115         
  116            117            118            119            120         
  121            122            123            124            125         
  126            127            128            129            130         
  131            132            133            134            135         
  136            137            138            139            140         
  141            142            143            144            145         
  146            147            148            149            150         
  151            152            153            154            155         
  156            157            158            159            160         
  161            162            163            164            165         
  166            167            168            169            170         
  171            172            173            174            175         
  176         

 Variables with the same non-blank name are constrained to be equal


 Using diagonal initial Hessian 
 Scaling for Hessian diagonals: bonds = 1.00  angles = 0.25  torsions = 0.10

          --------
          Step   0
          --------


                         Geometry "geometry" -> "geometry"
                         ---------------------------------

 Output coordinates in angstroms (scale by  1.889725989 to convert to a.u.)

  No.       Tag          Charge          X              Y              Z
 ---- ---------------- ---------- -------------- -------------- --------------
    1 H                    1.0000     1.42890000     1.42890000     1.42890000
    2 H                    1.0000    -1.42890000    -1.42890000     1.42890000
    3 H                    1.0000    -1.42890000     1.42890000    -1.42890000
    4 H                    1.0000     1.42890000    -1.42890000    -1.42890000
    5 H                    1.0000    -1.42890000    -1.42890000    -1.42890000
    6 H                    1.0000     1.42890000     1.42890000    -1.42890000
    7 H                    1.0000     1.42890000    -1.42890000     1.42890000
    8 H                    1.0000    -1.42890000     1.42890000     1.42890000
    9 C                    6.0000     0.79210000     0.79210000     0.79210000
   10 C                    6.0000    -0.79210000    -0.79210000     0.79210000
   11 C                    6.0000    -0.79210000     0.79210000    -0.79210000
   12 C                    6.0000     0.79210000    -0.79210000    -0.79210000
   13 C                    6.0000    -0.79210000    -0.79210000    -0.79210000
   14 C                    6.0000     0.79210000     0.79210000    -0.79210000
   15 C                    6.0000     0.79210000    -0.79210000     0.79210000
   16 C                    6.0000    -0.79210000     0.79210000     0.79210000

      Atomic Mass 
      ----------- 

      H                  1.007825
      C                 12.000000


 Effective nuclear repulsion energy (a.u.)     363.5363870677

            Nuclear Dipole moment (a.u.) 
            ----------------------------
        X                 Y               Z
 ---------------- ---------------- ----------------
     0.0000000000     0.0000000000     0.0000000000

      Symmetry information
      --------------------

 Group name             D2h       
 Group number             26
 Group order               8
 No. of unique centers     2

      Symmetry unique atoms

     1    9

                         NWChem Numerical Gradients Module
                         ---------------------------------


 No. of totally-symmetric internal modes =   6

                                 NWChem SCF Module
                                 -----------------


                          cubane CCSD(T)/cc-pVDZ optimize



  ao basis        = "ao basis"
  functions       =   152
  atoms           =    16
  closed shells   =    28
  open shells     =     0
  charge          =   0.00
  wavefunction    = RHF 
  input vectors   = atomic
  output vectors  = /mnt/scratch/cubane.movecs
  use symmetry    = T
  symmetry adapt  = T


 Summary of "ao basis" -> "ao basis" (spherical)
 ------------------------------------------------------------------------------
       Tag                 Description            Shells   Functions and Types
 ---------------- ------------------------------  ------  ---------------------
 H                          cc-pVDZ                  3        5   2s1p
 C                          cc-pVDZ                  6       14   3s2p1d


      Symmetry analysis of basis
      --------------------------

        ag         19
        au         19
        b1g        19
        b1u        19
        b2g        19
        b2u        19
        b3g        19
        b3u        19


 Forming initial guess at       1.4s


      Superposition of Atomic Density Guess
      -------------------------------------

 Sum of atomic energies:        -305.32340088

      Non-variational initial energy
      ------------------------------

 Total energy =    -311.388533
 1-e energy   =   -1130.521250
 2-e energy   =     455.596329
 HOMO         =      -0.283535
 LUMO         =       0.057901


      Symmetry analysis of molecular orbitals - initial
      -------------------------------------------------


 !! scf_movecs_sym_adapt:   78 vectors were symmetry contaminated

  Symmetry fudging

 !! scf_movecs_sym_adapt:   71 vectors were symmetry contaminated

  Numbering of irreducible representations: 

     1 ag          2 au          3 b1g         4 b1u         5 b2g     
     6 b2u         7 b3g         8 b3u     

  Orbital symmetries:

     1 ag          2 b3u         3 b2u         4 b1u         5 b2g     
     6 b3g         7 b1g         8 au          9 ag         10 b2u     
    11 b3u        12 b1u        13 b3g        14 b2g        15 b1g     
    16 ag         17 au         18 ag         19 ag         20 b2u     
    21 b3u        22 b1u        23 b3u        24 b2u        25 b1u     
    26 b2g        27 b3g        28 b1g        29 b2u        30 b3u     
    31 b1u        32 ag         33 b2u        34 b3u        35 b1u     
    36 b2g        37 b3g        38 b1g     


 Starting SCF solution at       3.0s



 ----------------------------------------------
         Quadratically convergent ROHF

 Convergence threshold     :          1.000E-04
 Maximum no. of iterations :           30
 Final Fock-matrix accuracy:          1.000E-07
 ----------------------------------------------


              iter       energy          gnorm     gmax       time
             ----- ------------------- --------- --------- --------
                 1     -307.3292894489  9.06D-01  2.43D-01      6.5
                 2     -307.4092378505  1.50D-01  3.46D-02     15.4
                 3     -307.4108242724  5.59D-03  1.28D-03     27.9
                 4     -307.4108279419  1.00D-05  5.26D-06     49.5


       Final RHF  results 
       ------------------ 

         Total SCF energy =   -307.410827941865
      One-electron energy =  -1136.240648119928
      Two-electron energy =    465.293433110398
 Nuclear repulsion energy =    363.536387067665

        Time for solution =     47.5s



       Symmetry analysis of molecular orbitals - final
       -----------------------------------------------

  Numbering of irreducible representations: 

     1 ag          2 au          3 b1g         4 b1u         5 b2g     
     6 b2u         7 b3g         8 b3u     

  Orbital symmetries:

     1 ag          2 b2u         3 b3u         4 b1u         5 b3g     
     6 b2g         7 b1g         8 au          9 ag         10 b1u     
    11 b2u        12 b3u        13 b2g        14 b3g        15 b1g     
    16 ag         17 au         18 b2u        19 b3u        20 b1u     
    21 ag         22 ag         23 b2u        24 b3u        25 b1u     
    26 b2g        27 b3g        28 b1g        29 ag         30 b3u     
    31 b2u        32 b1u        33 b2g        34 b3g        35 b1g     
    36 b3u        37 b2u        38 b1u     

             Final eigenvalues
             -----------------

              1      
    1  -11.2318
    2  -11.2313
    3  -11.2313
    4  -11.2313
    5  -11.2308
    6  -11.2308
    7  -11.2308
    8  -11.2304
    9   -1.2332
   10   -0.9732
   11   -0.9732
   12   -0.9732
   13   -0.7653
   14   -0.7653
   15   -0.7653
   16   -0.7021
   17   -0.6397
   18   -0.5753
   19   -0.5753
   20   -0.5753
   21   -0.5720
   22   -0.5720
   23   -0.3883
   24   -0.3883
   25   -0.3883
   26   -0.3842
   27   -0.3842
   28   -0.3842
   29    0.1816
   30    0.2018
   31    0.2018
   32    0.2018
   33    0.2529
   34    0.2529
   35    0.2529
   36    0.2564
   37    0.2564
   38    0.2564

                       ROHF Final Molecular Orbital Analysis
                       -------------------------------------

 Vector    9  Occ=2.000000D+00  E=-1.233250D+00  Symmetry=ag
              MO Center=  2.8D-17,  4.2D-17,  2.0D-18, r^2= 1.7D+00
   Bfn.  Coefficient  Atom+Function         Bfn.  Coefficient  Atom+Function  
  ----- ------------  ---------------      ----- ------------  ---------------
    42      0.134775   9 C  s                56      0.134775  10 C  s         
    70      0.134775  11 C  s                84      0.134775  12 C  s         
    98      0.134775  13 C  s               112      0.134775  14 C  s         
   126      0.134775  15 C  s               140      0.134775  16 C  s         

 Vector   10  Occ=2.000000D+00  E=-9.732171D-01  Symmetry=b1u
              MO Center=  5.8D-17, -2.0D-16,  2.5D-16, r^2= 2.6D+00
   Bfn.  Coefficient  Atom+Function         Bfn.  Coefficient  Atom+Function  
  ----- ------------  ---------------      ----- ------------  ---------------
    42      0.137558   9 C  s                56      0.137558  10 C  s         
    70     -0.137558  11 C  s                84     -0.137558  12 C  s         
    98     -0.137558  13 C  s               112     -0.137558  14 C  s         
   126      0.137558  15 C  s               140      0.137558  16 C  s         

 Vector   11  Occ=2.000000D+00  E=-9.732171D-01  Symmetry=b2u
              MO Center= -7.2D-17,  1.0D-17, -4.1D-17, r^2= 2.6D+00
   Bfn.  Coefficient  Atom+Function         Bfn.  Coefficient  Atom+Function  
  ----- ------------  ---------------      ----- ------------  ---------------
    42      0.137558   9 C  s                56     -0.137558  10 C  s         
    70      0.137558  11 C  s                84     -0.137558  12 C  s         
    98     -0.137558  13 C  s               112      0.137558  14 C  s         
   126     -0.137558  15 C  s               140      0.137558  16 C  s         

 Vector   12  Occ=2.000000D+00  E=-9.732171D-01  Symmetry=b3u
              MO Center=  4.1D-17,  1.6D-18, -3.6D-17, r^2= 2.6D+00
   Bfn.  Coefficient  Atom+Function         Bfn.  Coefficient  Atom+Function  
  ----- ------------  ---------------      ----- ------------  ---------------
    42      0.137558   9 C  s                56     -0.137558  10 C  s         
    70     -0.137558  11 C  s                84      0.137558  12 C  s         
    98     -0.137558  13 C  s               112      0.137558  14 C  s         
   126      0.137558  15 C  s               140     -0.137558  16 C  s         

 Vector   13  Occ=2.000000D+00  E=-7.653314D-01  Symmetry=b2g
              MO Center=  1.7D-16, -3.6D-16,  3.4D-17, r^2= 4.1D+00
   Bfn.  Coefficient  Atom+Function         Bfn.  Coefficient  Atom+Function  
  ----- ------------  ---------------      ----- ------------  ---------------
    43      0.154174   9 C  s                57     -0.154174  10 C  s         
    71      0.154174  11 C  s                85     -0.154174  12 C  s         
    99      0.154174  13 C  s               113     -0.154174  14 C  s         
   127      0.154174  15 C  s               141     -0.154174  16 C  s         

 Vector   14  Occ=2.000000D+00  E=-7.653314D-01  Symmetry=b3g
              MO Center=  1.9D-16,  9.9D-17,  1.4D-16, r^2= 4.1D+00
   Bfn.  Coefficient  Atom+Function         Bfn.  Coefficient  Atom+Function  
  ----- ------------  ---------------      ----- ------------  ---------------
    43      0.154174   9 C  s                57     -0.154174  10 C  s         
    71     -0.154174  11 C  s                85      0.154174  12 C  s         
    99      0.154174  13 C  s               113     -0.154174  14 C  s         
   127     -0.154174  15 C  s               141      0.154174  16 C  s         

 Vector   15  Occ=2.000000D+00  E=-7.653314D-01  Symmetry=b1g
              MO Center= -8.4D-17, -1.6D-16, -5.7D-17, r^2= 4.1D+00
   Bfn.  Coefficient  Atom+Function         Bfn.  Coefficient  Atom+Function  
  ----- ------------  ---------------      ----- ------------  ---------------
    43      0.154174   9 C  s                57      0.154174  10 C  s         
    71     -0.154174  11 C  s                85     -0.154174  12 C  s         
    99      0.154174  13 C  s               113      0.154174  14 C  s         
   127     -0.154174  15 C  s               141     -0.154174  16 C  s         

 Vector   16  Occ=2.000000D+00  E=-7.020951D-01  Symmetry=ag
              MO Center= -5.0D-17,  8.1D-17,  9.6D-17, r^2= 4.4D+00
   Bfn.  Coefficient  Atom+Function         Bfn.  Coefficient  Atom+Function  
  ----- ------------  ---------------      ----- ------------  ---------------
     1      0.132470   1 H  s                 6      0.132470   2 H  s         
    11      0.132470   3 H  s                16      0.132470   4 H  s         
    21      0.132470   5 H  s                26      0.132470   6 H  s         
    31      0.132470   7 H  s                36      0.132470   8 H  s         

 Vector   17  Occ=2.000000D+00  E=-6.396508D-01  Symmetry=au
              MO Center= -6.2D-17, -4.9D-17,  2.5D-17, r^2= 5.2D+00
   Bfn.  Coefficient  Atom+Function         Bfn.  Coefficient  Atom+Function  
  ----- ------------  ---------------      ----- ------------  ---------------
     1      0.154532   1 H  s                 6      0.154532   2 H  s         
    11      0.154532   3 H  s                16      0.154532   4 H  s         
    21     -0.154532   5 H  s                26     -0.154532   6 H  s         
    31     -0.154532   7 H  s                36     -0.154532   8 H  s         

 Vector   18  Occ=2.000000D+00  E=-5.753309D-01  Symmetry=b2u
              MO Center= -9.5D-17,  8.2D-17, -3.3D-17, r^2= 4.3D+00
   Bfn.  Coefficient  Atom+Function         Bfn.  Coefficient  Atom+Function  
  ----- ------------  ---------------      ----- ------------  ---------------
     1      0.139536   1 H  s                 6     -0.139536   2 H  s         
    11      0.139536   3 H  s                16     -0.139536   4 H  s         
    21     -0.139536   5 H  s                26      0.139536   6 H  s         
    31     -0.139536   7 H  s                36      0.139536   8 H  s         

 Vector   19  Occ=2.000000D+00  E=-5.753309D-01  Symmetry=b3u
              MO Center= -5.8D-16,  1.2D-16, -9.0D-17, r^2= 4.3D+00
   Bfn.  Coefficient  Atom+Function         Bfn.  Coefficient  Atom+Function  
  ----- ------------  ---------------      ----- ------------  ---------------
     1      0.139536   1 H  s                 6     -0.139536   2 H  s         
    11     -0.139536   3 H  s                16      0.139536   4 H  s         
    21     -0.139536   5 H  s                26      0.139536   6 H  s         
    31      0.139536   7 H  s                36     -0.139536   8 H  s         

 Vector   20  Occ=2.000000D+00  E=-5.753309D-01  Symmetry=b1u
              MO Center= -1.8D-17, -6.3D-17,  8.7D-16, r^2= 4.3D+00
   Bfn.  Coefficient  Atom+Function         Bfn.  Coefficient  Atom+Function  
  ----- ------------  ---------------      ----- ------------  ---------------
     1      0.139536   1 H  s                 6      0.139536   2 H  s         
    11     -0.139536   3 H  s                16     -0.139536   4 H  s         
    21     -0.139536   5 H  s                26     -0.139536   6 H  s         
    31      0.139536   7 H  s                36      0.139536   8 H  s         

 Vector   21  Occ=2.000000D+00  E=-5.720337D-01  Symmetry=ag
              MO Center= -9.3D-16,  8.4D-16, -8.2D-16, r^2= 2.6D+00
   Bfn.  Coefficient  Atom+Function         Bfn.  Coefficient  Atom+Function  
  ----- ------------  ---------------      ----- ------------  ---------------
    46      0.167944   9 C  pz               60      0.167944  10 C  pz        
    74     -0.167944  11 C  pz               88     -0.167944  12 C  pz        
   102     -0.167944  13 C  pz              116     -0.167944  14 C  pz        
   130      0.167944  15 C  pz              144      0.167944  16 C  pz        

 Vector   22  Occ=2.000000D+00  E=-5.720337D-01  Symmetry=ag
              MO Center=  2.3D-16, -4.4D-17,  9.8D-17, r^2= 2.6D+00
   Bfn.  Coefficient  Atom+Function         Bfn.  Coefficient  Atom+Function  
  ----- ------------  ---------------      ----- ------------  ---------------
    44      0.145435   9 C  px               45     -0.145452   9 C  py        
    58     -0.145435  10 C  px               59      0.145452  10 C  py        
    72     -0.145435  11 C  px               73     -0.145452  11 C  py        
    86      0.145435  12 C  px               87      0.145452  12 C  py        
   100     -0.145435  13 C  px              101      0.145452  13 C  py        

 Vector   23  Occ=2.000000D+00  E=-3.883045D-01  Symmetry=b2u
              MO Center=  5.1D-17, -8.5D-16,  3.1D-17, r^2= 2.9D+00
   Bfn.  Coefficient  Atom+Function         Bfn.  Coefficient  Atom+Function  
  ----- ------------  ---------------      ----- ------------  ---------------
    44      0.161995   9 C  px               46     -0.161995   9 C  pz        
    58      0.161995  10 C  px               60      0.161995  10 C  pz        
    72     -0.161995  11 C  px               74      0.161995  11 C  pz        
    86     -0.161995  12 C  px               88     -0.161995  12 C  pz        
   100      0.161995  13 C  px              102     -0.161995  13 C  pz        

 Vector   24  Occ=2.000000D+00  E=-3.883045D-01  Symmetry=b3u
              MO Center=  1.4D-15,  7.4D-18,  7.2D-18, r^2= 2.9D+00
   Bfn.  Coefficient  Atom+Function         Bfn.  Coefficient  Atom+Function  
  ----- ------------  ---------------      ----- ------------  ---------------
    45      0.161995   9 C  py               46     -0.161995   9 C  pz        
    59      0.161995  10 C  py               60      0.161995  10 C  pz        
    73     -0.161995  11 C  py               74     -0.161995  11 C  pz        
    87     -0.161995  12 C  py               88      0.161995  12 C  pz        
   101      0.161995  13 C  py              102     -0.161995  13 C  pz        

 Vector   25  Occ=2.000000D+00  E=-3.883045D-01  Symmetry=b1u
              MO Center=  7.0D-17, -6.4D-17, -1.9D-16, r^2= 2.9D+00
   Bfn.  Coefficient  Atom+Function         Bfn.  Coefficient  Atom+Function  
  ----- ------------  ---------------      ----- ------------  ---------------
    44      0.161995   9 C  px               45     -0.161995   9 C  py        
    58     -0.161995  10 C  px               59      0.161995  10 C  py        
    72      0.161995  11 C  px               73      0.161995  11 C  py        
    86     -0.161995  12 C  px               87     -0.161995  12 C  py        
   100      0.161995  13 C  px              101     -0.161995  13 C  py        

 Vector   26  Occ=2.000000D+00  E=-3.842191D-01  Symmetry=b2g
              MO Center=  7.6D-17, -2.0D-18, -2.6D-17, r^2= 3.6D+00
   Bfn.  Coefficient  Atom+Function         Bfn.  Coefficient  Atom+Function  
  ----- ------------  ---------------      ----- ------------  ---------------
    45      0.208246   9 C  py               59      0.208246  10 C  py        
    73      0.208246  11 C  py               87      0.208246  12 C  py        
   101     -0.208246  13 C  py              115     -0.208246  14 C  py        
   129     -0.208246  15 C  py              143     -0.208246  16 C  py        

 Vector   27  Occ=2.000000D+00  E=-3.842191D-01  Symmetry=b3g
              MO Center= -6.2D-17,  2.4D-16, -1.2D-16, r^2= 3.6D+00
   Bfn.  Coefficient  Atom+Function         Bfn.  Coefficient  Atom+Function  
  ----- ------------  ---------------      ----- ------------  ---------------
    44      0.208246   9 C  px               58      0.208246  10 C  px        
    72      0.208246  11 C  px               86      0.208246  12 C  px        
   100     -0.208246  13 C  px              114     -0.208246  14 C  px        
   128     -0.208246  15 C  px              142     -0.208246  16 C  px        

 Vector   28  Occ=2.000000D+00  E=-3.842191D-01  Symmetry=b1g
              MO Center= -1.1D-16,  1.6D-16, -7.6D-17, r^2= 3.6D+00
   Bfn.  Coefficient  Atom+Function         Bfn.  Coefficient  Atom+Function  
  ----- ------------  ---------------      ----- ------------  ---------------
    46      0.208246   9 C  pz               60      0.208246  10 C  pz        
    74      0.208246  11 C  pz               88      0.208246  12 C  pz        
   102     -0.208246  13 C  pz              116     -0.208246  14 C  pz        
   130     -0.208246  15 C  pz              144     -0.208246  16 C  pz        

 Vector   29  Occ=0.000000D+00  E= 1.816393D-01  Symmetry=ag
              MO Center= -9.9D-16, -9.3D-16, -2.0D-16, r^2= 1.0D+01
   Bfn.  Coefficient  Atom+Function         Bfn.  Coefficient  Atom+Function  
  ----- ------------  ---------------      ----- ------------  ---------------
     2      0.679565   1 H  s                 7      0.679565   2 H  s         
    12      0.679565   3 H  s                17      0.679565   4 H  s         
    22      0.679565   5 H  s                27      0.679565   6 H  s         
    32      0.679565   7 H  s                37      0.679565   8 H  s         
    43     -0.548345   9 C  s                57     -0.548345  10 C  s         

 Vector   30  Occ=0.000000D+00  E= 2.018202D-01  Symmetry=b3u
              MO Center=  2.3D-15,  6.7D-16, -6.2D-16, r^2= 7.1D+00
   Bfn.  Coefficient  Atom+Function         Bfn.  Coefficient  Atom+Function  
  ----- ------------  ---------------      ----- ------------  ---------------
    43      0.722405   9 C  s                57     -0.722405  10 C  s         
    71     -0.722405  11 C  s                85      0.722405  12 C  s         
    99     -0.722405  13 C  s               113      0.722405  14 C  s         
   127      0.722405  15 C  s               141     -0.722405  16 C  s         
     2     -0.454228   1 H  s                 7      0.454228   2 H  s         

 Vector   31  Occ=0.000000D+00  E= 2.018202D-01  Symmetry=b2u
              MO Center=  4.4D-16, -6.0D-16,  2.0D-16, r^2= 7.1D+00
   Bfn.  Coefficient  Atom+Function         Bfn.  Coefficient  Atom+Function  
  ----- ------------  ---------------      ----- ------------  ---------------
    43      0.722405   9 C  s                57     -0.722405  10 C  s         
    71      0.722405  11 C  s                85     -0.722405  12 C  s         
    99     -0.722405  13 C  s               113      0.722405  14 C  s         
   127     -0.722405  15 C  s               141      0.722405  16 C  s         
     2     -0.454228   1 H  s                 7      0.454228   2 H  s         

 Vector   32  Occ=0.000000D+00  E= 2.018202D-01  Symmetry=b1u
              MO Center=  2.0D-16,  6.2D-16,  7.0D-16, r^2= 7.1D+00
   Bfn.  Coefficient  Atom+Function         Bfn.  Coefficient  Atom+Function  
  ----- ------------  ---------------      ----- ------------  ---------------
    43      0.722405   9 C  s                57      0.722405  10 C  s         
    71     -0.722405  11 C  s                85     -0.722405  12 C  s         
    99     -0.722405  13 C  s               113     -0.722405  14 C  s         
   127      0.722405  15 C  s               141      0.722405  16 C  s         
     2     -0.454228   1 H  s                 7     -0.454228   2 H  s         

 Vector   33  Occ=0.000000D+00  E= 2.528629D-01  Symmetry=b2g
              MO Center=  1.7D-15, -8.7D-16,  1.2D-15, r^2= 1.2D+01
   Bfn.  Coefficient  Atom+Function         Bfn.  Coefficient  Atom+Function  
  ----- ------------  ---------------      ----- ------------  ---------------
     2      0.948617   1 H  s                 7     -0.948617   2 H  s         
    12      0.948617   3 H  s                17     -0.948617   4 H  s         
    22      0.948617   5 H  s                27     -0.948617   6 H  s         
    32      0.948617   7 H  s                37     -0.948617   8 H  s         
    48     -0.497268   9 C  py               62     -0.497268  10 C  py        

 Vector   34  Occ=0.000000D+00  E= 2.528629D-01  Symmetry=b3g
              MO Center= -5.3D-16,  7.3D-16,  1.5D-15, r^2= 1.2D+01
   Bfn.  Coefficient  Atom+Function         Bfn.  Coefficient  Atom+Function  
  ----- ------------  ---------------      ----- ------------  ---------------
     2      0.948617   1 H  s                 7     -0.948617   2 H  s         
    12     -0.948617   3 H  s                17      0.948617   4 H  s         
    22      0.948617   5 H  s                27     -0.948617   6 H  s         
    32     -0.948617   7 H  s                37      0.948617   8 H  s         
    47     -0.497268   9 C  px               61     -0.497268  10 C  px        

 Vector   35  Occ=0.000000D+00  E= 2.528629D-01  Symmetry=b1g
              MO Center=  1.2D-15, -6.8D-16, -2.9D-15, r^2= 1.2D+01
   Bfn.  Coefficient  Atom+Function         Bfn.  Coefficient  Atom+Function  
  ----- ------------  ---------------      ----- ------------  ---------------
     2      0.948617   1 H  s                 7      0.948617   2 H  s         
    12     -0.948617   3 H  s                17     -0.948617   4 H  s         
    22      0.948617   5 H  s                27      0.948617   6 H  s         
    32     -0.948617   7 H  s                37     -0.948617   8 H  s         
    49     -0.497268   9 C  pz               63     -0.497268  10 C  pz        

 Vector   36  Occ=0.000000D+00  E= 2.564319D-01  Symmetry=b3u
              MO Center= -1.5D-15,  6.2D-16, -1.3D-15, r^2= 8.6D+00
   Bfn.  Coefficient  Atom+Function         Bfn.  Coefficient  Atom+Function  
  ----- ------------  ---------------      ----- ------------  ---------------
     2      0.736056   1 H  s                 7     -0.736056   2 H  s         
    12     -0.736056   3 H  s                17      0.736056   4 H  s         
    22     -0.736056   5 H  s                27      0.736056   6 H  s         
    32      0.736056   7 H  s                37     -0.736056   8 H  s         
    47     -0.599749   9 C  px               61     -0.599749  10 C  px        

 Vector   37  Occ=0.000000D+00  E= 2.564319D-01  Symmetry=b2u
              MO Center=  9.9D-16, -1.9D-15, -2.2D-15, r^2= 8.6D+00
   Bfn.  Coefficient  Atom+Function         Bfn.  Coefficient  Atom+Function  
  ----- ------------  ---------------      ----- ------------  ---------------
     2      0.736056   1 H  s                 7     -0.736056   2 H  s         
    12      0.736056   3 H  s                17     -0.736056   4 H  s         
    22     -0.736056   5 H  s                27      0.736056   6 H  s         
    32     -0.736056   7 H  s                37      0.736056   8 H  s         
    48     -0.599749   9 C  py               62     -0.599749  10 C  py        

 Vector   38  Occ=0.000000D+00  E= 2.564319D-01  Symmetry=b1u
              MO Center= -6.8D-16,  1.1D-15, -9.9D-17, r^2= 8.6D+00
   Bfn.  Coefficient  Atom+Function         Bfn.  Coefficient  Atom+Function  
  ----- ------------  ---------------      ----- ------------  ---------------
     2      0.736056   1 H  s                 7      0.736056   2 H  s         
    12     -0.736056   3 H  s                17     -0.736056   4 H  s         
    22     -0.736056   5 H  s                27     -0.736056   6 H  s         
    32      0.736056   7 H  s                37      0.736056   8 H  s         
    49     -0.599749   9 C  pz               63     -0.599749  10 C  pz        

 Vector   39  Occ=0.000000D+00  E= 2.631805D-01  Symmetry=au
              MO Center=  6.9D-15,  1.3D-14,  1.7D-14, r^2= 1.3D+01
   Bfn.  Coefficient  Atom+Function         Bfn.  Coefficient  Atom+Function  
  ----- ------------  ---------------      ----- ------------  ---------------
    43      1.450911   9 C  s                57      1.450911  10 C  s         
    71      1.450911  11 C  s                85      1.450911  12 C  s         
    99     -1.450911  13 C  s               113     -1.450911  14 C  s         
   127     -1.450911  15 C  s               141     -1.450911  16 C  s         
     2      1.281923   1 H  s                 7      1.281923   2 H  s         

 Vector   40  Occ=0.000000D+00  E= 3.663365D-01  Symmetry=b1g
              MO Center= -1.8D-16,  4.9D-16,  5.0D-16, r^2= 4.5D+00
   Bfn.  Coefficient  Atom+Function         Bfn.  Coefficient  Atom+Function  
  ----- ------------  ---------------      ----- ------------  ---------------
    47      0.573225   9 C  px               48     -0.573225   9 C  py        
    61     -0.573225  10 C  px               62      0.573225  10 C  py        
    75      0.573225  11 C  px               76      0.573225  11 C  py        
    89     -0.573225  12 C  px               90     -0.573225  12 C  py        
   103     -0.573225  13 C  px              104      0.573225  13 C  py        

 Vector   41  Occ=0.000000D+00  E= 3.663365D-01  Symmetry=b2g
              MO Center= -3.8D-16,  1.4D-16,  4.9D-16, r^2= 4.5D+00
   Bfn.  Coefficient  Atom+Function         Bfn.  Coefficient  Atom+Function  
  ----- ------------  ---------------      ----- ------------  ---------------
    47      0.573225   9 C  px               49     -0.573225   9 C  pz        
    61      0.573225  10 C  px               63      0.573225  10 C  pz        
    75     -0.573225  11 C  px               77      0.573225  11 C  pz        
    89     -0.573225  12 C  px               91     -0.573225  12 C  pz        
   103     -0.573225  13 C  px              105      0.573225  13 C  pz        

 Vector   42  Occ=0.000000D+00  E= 3.663365D-01  Symmetry=b3g
              MO Center= -1.3D-16, -3.0D-16,  4.0D-16, r^2= 4.5D+00
   Bfn.  Coefficient  Atom+Function         Bfn.  Coefficient  Atom+Function  
  ----- ------------  ---------------      ----- ------------  ---------------
    48      0.573225   9 C  py               49     -0.573225   9 C  pz        
    62      0.573225  10 C  py               63      0.573225  10 C  pz        
    76     -0.573225  11 C  py               77     -0.573225  11 C  pz        
    90     -0.573225  12 C  py               91      0.573225  12 C  pz        
   104     -0.573225  13 C  py              105      0.573225  13 C  pz        

 Vector   43  Occ=0.000000D+00  E= 4.451889D-01  Symmetry=b3g
              MO Center= -3.2D-15,  3.1D-15,  8.4D-16, r^2= 6.4D+00
   Bfn.  Coefficient  Atom+Function         Bfn.  Coefficient  Atom+Function  
  ----- ------------  ---------------      ----- ------------  ---------------
    43      1.744464   9 C  s                57     -1.744464  10 C  s         
    71     -1.744464  11 C  s                85      1.744464  12 C  s         
    99      1.744464  13 C  s               113     -1.744464  14 C  s         
   127     -1.744464  15 C  s               141      1.744464  16 C  s         
    48     -1.073891   9 C  py               49     -1.073891   9 C  pz        

 Vector   44  Occ=0.000000D+00  E= 4.451889D-01  Symmetry=b2g
              MO Center=  4.6D-15,  1.0D-14, -2.7D-15, r^2= 6.4D+00
   Bfn.  Coefficient  Atom+Function         Bfn.  Coefficient  Atom+Function  
  ----- ------------  ---------------      ----- ------------  ---------------
    43      1.744464   9 C  s                57     -1.744464  10 C  s         
    71      1.744464  11 C  s                85     -1.744464  12 C  s         
    99      1.744464  13 C  s               113     -1.744464  14 C  s         
   127      1.744464  15 C  s               141     -1.744464  16 C  s         
    47     -1.073891   9 C  px               49     -1.073891   9 C  pz        

 Vector   45  Occ=0.000000D+00  E= 4.451889D-01  Symmetry=b1g
              MO Center= -2.8D-15, -4.3D-15,  8.5D-15, r^2= 6.4D+00
   Bfn.  Coefficient  Atom+Function         Bfn.  Coefficient  Atom+Function  
  ----- ------------  ---------------      ----- ------------  ---------------
    43      1.744464   9 C  s                57      1.744464  10 C  s         
    71     -1.744464  11 C  s                85     -1.744464  12 C  s         
    99      1.744464  13 C  s               113      1.744464  14 C  s         
   127     -1.744464  15 C  s               141     -1.744464  16 C  s         
    47     -1.073891   9 C  px               48     -1.073891   9 C  py        

 Vector   46  Occ=0.000000D+00  E= 4.937092D-01  Symmetry=ag
              MO Center= -2.3D-14,  2.4D-14,  2.5D-14, r^2= 5.8D+00
   Bfn.  Coefficient  Atom+Function         Bfn.  Coefficient  Atom+Function  
  ----- ------------  ---------------      ----- ------------  ---------------
     1      0.309276   1 H  s                 6      0.309276   2 H  s         
    11      0.309276   3 H  s                16      0.309276   4 H  s         
    21      0.309276   5 H  s                26      0.309276   6 H  s         
    31      0.309276   7 H  s                36      0.309276   8 H  s         
     2     -0.249031   1 H  s                 7     -0.249031   2 H  s         

 Vector   47  Occ=0.000000D+00  E= 5.164972D-01  Symmetry=au
              MO Center=  1.3D-15,  1.0D-15,  1.0D-15, r^2= 5.0D+00
   Bfn.  Coefficient  Atom+Function         Bfn.  Coefficient  Atom+Function  
  ----- ------------  ---------------      ----- ------------  ---------------
    47      1.021290   9 C  px               61     -1.021290  10 C  px        
    75     -1.021290  11 C  px               89      1.021290  12 C  px        
   103      1.021290  13 C  px              117     -1.021290  14 C  px        
   131     -1.021290  15 C  px              145      1.021290  16 C  px        
    48     -0.997498   9 C  py               62      0.997498  10 C  py        


 center of mass
 --------------
 x =   0.00000000 y =   0.00000000 z =   0.00000000

 moments of inertia (a.u.)
 ------------------
         547.761318923420           0.000000000000           0.000000000000
           0.000000000000         547.761318923420           0.000000000000
           0.000000000000           0.000000000000         547.761318923420

  Mulliken analysis of the total density
  --------------------------------------

    Atom       Charge   Shell Charges
 -----------   ------   -------------------------------------------------------
    1 H    1     1.00   0.75  0.21  0.03
    2 H    1     1.00   0.75  0.21  0.03
    3 H    1     1.00   0.75  0.21  0.03
    4 H    1     1.00   0.75  0.21  0.03
    5 H    1     1.00   0.75  0.21  0.03
    6 H    1     1.00   0.75  0.21  0.03
    7 H    1     1.00   0.75  0.21  0.03
    8 H    1     1.00   0.75  0.21  0.03
    9 C    6     6.00   2.01  0.63  0.57  1.97  0.73  0.09
   10 C    6     6.00   2.01  0.63  0.57  1.97  0.73  0.09
   11 C    6     6.00   2.01  0.63  0.57  1.97  0.73  0.09
   12 C    6     6.00   2.01  0.63  0.57  1.97  0.73  0.09
   13 C    6     6.00   2.01  0.63  0.57  1.97  0.73  0.09
   14 C    6     6.00   2.01  0.63  0.57  1.97  0.73  0.09
   15 C    6     6.00   2.01  0.63  0.57  1.97  0.73  0.09
   16 C    6     6.00   2.01  0.63  0.57  1.97  0.73  0.09

       Multipole analysis of the density wrt the origin
       ------------------------------------------------

     L   x y z        total         open         nuclear
     -   - - -        -----         ----         -------
     0   0 0 0     -0.000000      0.000000     56.000000

     1   1 0 0     -0.000000      0.000000      0.000000
     1   0 1 0     -0.000000      0.000000      0.000000
     1   0 0 1     -0.000000      0.000000      0.000000

     2   2 0 0    -35.259762      0.000000    165.877071
     2   1 1 0     -0.000000      0.000000      0.000000
     2   1 0 1      0.000000      0.000000      0.000000
     2   0 2 0    -35.259762      0.000000    165.877071
     2   0 1 1      0.000000      0.000000      0.000000
     2   0 0 2    -35.259762      0.000000    165.877071

                   NWChem Extensible Many-Electron Theory Module
                   ---------------------------------------------

              ======================================================
                   This portion of the program was automatically
                  generated by a Tensor Contraction Engine (TCE).
                  The development of this portion of the program
                 and TCE was supported by US Department of Energy,
                Office of Science, Office of Basic Energy Science.
                      TCE is a product of Battelle and PNNL.
              Please cite: S.Hirata, J.Phys.Chem.A 107, 9887 (2003).
              ======================================================

                          cubane CCSD(T)/cc-pVDZ optimize


            General Information
            -------------------
      Number of processors :     1
         Wavefunction type : Restricted Hartree-Fock
          No. of electrons :    56
           Alpha electrons :    28
            Beta electrons :    28
           No. of orbitals :   304
            Alpha orbitals :   152
             Beta orbitals :   152
        Alpha frozen cores :     8
         Beta frozen cores :     8
     Alpha frozen virtuals :     0
      Beta frozen virtuals :     0
         Spin multiplicity : singlet 
    Number of AO functions :   152
       Number of AO shells :    72
        Use of symmetry is : on 
      Symmetry adaption is : on 
         Schwarz screening : 0.10D-09

          Correlation Information
          -----------------------
          Calculation type : Coupled-cluster singles & doubles w/ perturbation           
   Perturbative correction : (T)                                                         
            Max iterations :      100
        Residual threshold : 0.10D-06
     T(0) DIIS level shift : 0.00D+00
     L(0) DIIS level shift : 0.00D+00
     T(1) DIIS level shift : 0.00D+00
     L(1) DIIS level shift : 0.00D+00
     T(R) DIIS level shift : 0.00D+00
     T(I) DIIS level shift : 0.00D+00
   CC-T/L Amplitude update :  5-th order DIIS
                I/O scheme : Global Array Library
        L-threshold : 0.10D-06
        EOM-threshold : 0.10D-06
 no EOMCCSD initial starts read in
 TCE RESTART OPTIONS
 READ_INT:   F
 WRITE_INT:  F
 READ_TA:    F
 WRITE_TA:   F
 READ_XA:    F
 WRITE_XA:   F
 READ_IN3:   F
 WRITE_IN3:  F
 SLICE:      F
 XMEM:                          0
 D4D5:       F

            Memory Information
            ------------------
          Available GA space size is     262120896 doubles
          Available MA space size is      26204420 doubles

 Maximum block size        20 doubles

 tile_dim =     17

 Block   Spin    Irrep     Size     Offset   Alpha
 -------------------------------------------------
   1    alpha     ag     4 doubles       0       1
   2    alpha     au     1 doubles       4       2
   3    alpha     b1g    2 doubles       5       3
   4    alpha     b1u    3 doubles       7       4
   5    alpha     b2g    2 doubles      10       5
   6    alpha     b2u    3 doubles      12       6
   7    alpha     b3g    2 doubles      15       7
   8    alpha     b3u    3 doubles      17       8
   9    beta      ag     4 doubles      20       1
  10    beta      au     1 doubles      24       2
  11    beta      b1g    2 doubles      25       3
  12    beta      b1u    3 doubles      27       4
  13    beta      b2g    2 doubles      30       5
  14    beta      b2u    3 doubles      32       6
  15    beta      b3g    2 doubles      35       7
  16    beta      b3u    3 doubles      37       8
  17    alpha     ag    14 doubles      40      17
  18    alpha     au    17 doubles      54      18
  19    alpha     b1g   16 doubles      71      19
  20    alpha     b1u   15 doubles      87      20
  21    alpha     b2g   16 doubles     102      21
  22    alpha     b2u   15 doubles     118      22
  23    alpha     b3g   16 doubles     133      23
  24    alpha     b3u   15 doubles     149      24
  25    beta      ag    14 doubles     164      17
  26    beta      au    17 doubles     178      18
  27    beta      b1g   16 doubles     195      19
  28    beta      b1u   15 doubles     211      20
  29    beta      b2g   16 doubles     226      21
  30    beta      b2u   15 doubles     242      22
  31    beta      b3g   16 doubles     257      23
  32    beta      b3u   15 doubles     273      24

 Global array virtual files algorithm will be used

 Parallel file system coherency ......... OK

 Fock matrix recomputed
 1-e file size   =             2592
 1-e file name   = /mnt/scratch/cubane.
 Cpu & wall time / sec           32.9           32.9
 4-electron integrals stored in orbital form

 v2    file size   =          9597934
 4-index algorithm nr.   5 is used
 imaxsize =       30
 imaxsize ichop =        0
 2_EL_BATCH AND COEFF MATRIX
 size_ic              2371843
 size_icc                  561
 tile_dim                   17
 max_na                   33
 INTERMEDIATE FILES
 size_4af            192709924
 size_3a1mf            303849216
 size_2a2mf            157699520
 size_1a3mf            248647680
 size_2e              9597934
 before sf_create
 after sf_create
 STEP2 4index
 STEP3 4index
 STEP3 test
 STEP4 4index
 STEP5 4index
 DONE --- DONE ---- DONE ---- DONE
 Cpu & wall time / sec          467.9          516.0
 do_pt =  F
 do_lam_pt =  F
 do_cr_pt =  F
 do_lcr_pt =  F
 do_2t_pt =  F
 T1-number-of-tasks                    8

 t1 file size   =              304
 t1 file name   = /mnt/scratch/cubane.
 t1 file handle =       -998
 T2-number-of-boxes                  688

 t2 file size   =          1042096
 t2 file name   = /mnt/scratch/cubane.
 t2 file handle =       -996

 CCSD iterations
 -----------------------------------------------------------------
 Iter          Residuum       Correlation     Cpu    Wall    V2*C2
 -----------------------------------------------------------------
    1   0.2548377633830  -1.0726730723483    30.9    27.2    11.8
    2   0.0710409959031  -1.1020523661833    30.9    27.3    11.7
    3   0.0275262737380  -1.1248503149159    30.6    27.2    11.8
    4   0.0120408377505  -1.1287723203372    30.6    27.2    11.8
    5   0.0057403434166  -1.1308092276835    30.7    27.2    11.8
 MICROCYCLE DIIS UPDATE:                    5                    5
    6   0.0013333573112  -1.1318933321200    30.8    27.2    11.9
    7   0.0004966416006  -1.1321135678583    30.8    27.2    11.7
    8   0.0002549450018  -1.1320992340459    30.9    27.2    11.9
    9   0.0001224732187  -1.1321025269512    30.8    27.2    11.8
   10   0.0000671412837  -1.1321047462938    30.7    27.4    11.7
 MICROCYCLE DIIS UPDATE:                   10                    5
   11   0.0000120800174  -1.1321061765113    30.7    27.3    11.7
   12   0.0000044274526  -1.1321080178735    31.2    28.7    12.0
   13   0.0000019093680  -1.1321086771048    30.8    27.5    11.7
   14   0.0000009253284  -1.1321088332521    30.8    27.4    11.8
   15   0.0000004515890  -1.1321089000041    30.7    27.3    11.7
 MICROCYCLE DIIS UPDATE:                   15                    5
   16   0.0000001297677  -1.1321089402139    30.6    27.3    11.8
   17   0.0000000499031  -1.1321089514824    30.4    27.3    11.7
 -----------------------------------------------------------------
 Iterations converged
 CCSD correlation energy / hartree =        -1.132108951482377
 CCSD total energy / hartree       =      -308.542936893347758

 Singles contributions

 Doubles contributions
 CCSD(T)
 Using plain CCSD(T) code

 CCSD[T]  correction energy / hartree =        -0.047452864315312
 CCSD[T] correlation energy / hartree =        -1.179561815797689
 CCSD[T] total energy / hartree       =      -308.590389757663047
 CCSD(T)  correction energy / hartree =        -0.046730675559078
 CCSD(T) correlation energy / hartree =        -1.178839627041455
 CCSD(T) total energy / hartree       =      -308.589667568906862
 Cpu & wall time / sec          281.5          282.7
 Reference energy        -308.58966757


 Saving state for tce with suffix numg
        /mnt/scratch/cubane.movecs

 Finite difference step  1.00000D-02
 Use five point formula F

                                 NWChem SCF Module
                                 -----------------


                          cubane CCSD(T)/cc-pVDZ optimize



  ao basis        = "ao basis"
  functions       =   152
  atoms           =    16
  closed shells   =    28
  open shells     =     0
  charge          =   0.00
  wavefunction    = RHF 
  input vectors   = /mnt/scratch/cubane.movecs
  output vectors  = /mnt/scratch/cubane.movecs
  use symmetry    = T
  symmetry adapt  = T


 Summary of "ao basis" -> "ao basis" (spherical)
 ------------------------------------------------------------------------------
       Tag                 Description            Shells   Functions and Types
 ---------------- ------------------------------  ------  ---------------------
 H                          cc-pVDZ                  3        5   2s1p
 C                          cc-pVDZ                  6       14   3s2p1d


      Symmetry analysis of basis
      --------------------------

        ag         19
        au         19
        b1g        19
        b1u        19
        b2g        19
        b2u        19
        b3g        19
        b3u        19


 Forming initial guess at    1349.8s


 Loading old vectors from job with title :

cubane CCSD(T)/cc-pVDZ optimize


      Symmetry analysis of molecular orbitals - initial
      -------------------------------------------------

  Numbering of irreducible representations: 

     1 ag          2 au          3 b1g         4 b1u         5 b2g     
     6 b2u         7 b3g         8 b3u     

  Orbital symmetries:

     1 ag          2 b2u         3 b3u         4 b1u         5 b3g     
     6 b2g         7 b1g         8 au          9 ag         10 b1u     
    11 b2u        12 b3u        13 b2g        14 b3g        15 b1g     
    16 ag         17 au         18 b2u        19 b3u        20 b1u     
    21 ag         22 ag         23 b2u        24 b3u        25 b1u     
    26 b2g        27 b3g        28 b1g        29 ag         30 b3u     
    31 b2u        32 b1u        33 b2g        34 b3g        35 b1g     
    36 b3u        37 b2u        38 b1u     


 Starting SCF solution at    1350.0s



 ----------------------------------------------
         Quadratically convergent ROHF

 Convergence threshold     :          1.000E-04
 Maximum no. of iterations :           30
 Final Fock-matrix accuracy:          1.000E-07
 ----------------------------------------------


              iter       energy          gnorm     gmax       time
             ----- ------------------- --------- --------- --------
                 1     -307.4106423075  5.18D-03  1.07D-03   1361.8
                 2     -307.4106448462  1.93D-05  4.71D-06   1383.4


       Final RHF  results 
       ------------------ 

         Total SCF energy =   -307.410644846183
      One-electron energy =  -1136.149633158182
      Two-electron energy =    465.248245306978
 Nuclear repulsion energy =    363.490743005020

        Time for solution =     26.0s



       Symmetry analysis of molecular orbitals - final
       -----------------------------------------------

  Numbering of irreducible representations: 

     1 ag          2 au          3 b1g         4 b1u         5 b2g     
     6 b2u         7 b3g         8 b3u     

  Orbital symmetries:

     1 ag          2 b3u         3 b2u         4 b1u         5 b2g     
     6 b1g         7 b3g         8 au          9 ag         10 b3u     
    11 b1u        12 b2u        13 b1g        14 b2g        15 b3g     
    16 ag         17 au         18 b2u        19 b1u        20 b3u     
    21 ag         22 ag         23 b3u        24 b2u        25 b1u     
    26 b3g        27 b2g        28 b1g        29 ag         30 b3u     
    31 b2u        32 b1u        33 b2g        34 b1g        35 b3g     
    36 b2u        37 b1u        38 b3u     

             Final eigenvalues
             -----------------

              1      
    1  -11.2320
    2  -11.2315
    3  -11.2315
    4  -11.2315
    5  -11.2310
    6  -11.2310
    7  -11.2310
    8  -11.2305
    9   -1.2333
   10   -0.9733
   11   -0.9732
   12   -0.9732
   13   -0.7651
   14   -0.7651
   15   -0.7650
   16   -0.7018
   17   -0.6392
   18   -0.5751
   19   -0.5751
   20   -0.5750
   21   -0.5721
   22   -0.5721
   23   -0.3884
   24   -0.3884
   25   -0.3884
   26   -0.3844
   27   -0.3841
   28   -0.3841
   29    0.1814
   30    0.2017
   31    0.2018
   32    0.2018
   33    0.2527
   34    0.2527
   35    0.2530
   36    0.2563
   37    0.2563
   38    0.2563

                       ROHF Final Molecular Orbital Analysis
                       -------------------------------------

 Vector    9  Occ=2.000000D+00  E=-1.233329D+00  Symmetry=ag
              MO Center=  4.3D-17,  4.4D-18, -3.0D-17, r^2= 1.7D+00
   Bfn.  Coefficient  Atom+Function         Bfn.  Coefficient  Atom+Function  
  ----- ------------  ---------------      ----- ------------  ---------------
    42      0.134789   9 C  s                56      0.134789  10 C  s         
    70      0.134789  11 C  s                84      0.134789  12 C  s         
[...]
   52 Bend                    10    13    12                90.00000    0.00000
   53 Bend                    10    15    12                90.00000    0.00000
   54 Bend                    10    16    11                90.00000    0.00000
   55 Bend                    11    13    12                90.00000    0.00000
   56 Bend                    11    14    12                90.00000    0.00000
   57 Bend                    13    10    15                90.00000    0.00000
   58 Bend                    13    10    16                90.00000    0.00000
   59 Bend                    13    11    14                90.00000    0.00000
   60 Bend                    13    11    16                90.00000    0.00000
   61 Bend                    13    12    14                90.00000    0.00000
   62 Bend                    13    12    15                90.00000    0.00000
   63 Bend                    14     9    15                90.00000    0.00000
   64 Bend                    14     9    16                90.00000    0.00000
   65 Bend                    14    11    16                90.00000    0.00000
   66 Bend                    14    12    15                90.00000    0.00000
   67 Bend                    15     9    16                90.00000    0.00000
   68 Bend                    15    10    16                90.00000    0.00000
   69 Torsion                  1     9    14     6           0.00000    0.00000
   70 Torsion                  1     9    14    11        -135.00000   -0.00000
   71 Torsion                  1     9    14    12         135.00000   -0.00000
   72 Torsion                  1     9    15     7           0.00000    0.00000
   73 Torsion                  1     9    15    10         135.00000    0.00000
   74 Torsion                  1     9    15    12        -135.00000    0.00000
   75 Torsion                  1     9    16     8           0.00000    0.00000
   76 Torsion                  1     9    16    10        -135.00000   -0.00000
   77 Torsion                  1     9    16    11         135.00000   -0.00000
   78 Torsion                  2    10    13     5           0.00000    0.00000
   79 Torsion                  2    10    13    11         135.00000   -0.00000
   80 Torsion                  2    10    13    12        -135.00000   -0.00000
   81 Torsion                  2    10    15     7           0.00000    0.00000
   82 Torsion                  2    10    15     9        -135.00000   -0.00000
   83 Torsion                  2    10    15    12         135.00000   -0.00000
   84 Torsion                  2    10    16     8           0.00000    0.00000
   85 Torsion                  2    10    16     9         135.00000    0.00000
   86 Torsion                  2    10    16    11        -135.00000    0.00000
   87 Torsion                  3    11    13     5           0.00000    0.00000
   88 Torsion                  3    11    13    10        -135.00000    0.00000
   89 Torsion                  3    11    13    12         135.00000    0.00000
   90 Torsion                  3    11    14     6           0.00000    0.00000
   91 Torsion                  3    11    14     9         135.00000   -0.00000
   92 Torsion                  3    11    14    12        -135.00000   -0.00000
   93 Torsion                  3    11    16     8           0.00000    0.00000
   94 Torsion                  3    11    16     9        -135.00000   -0.00000
   95 Torsion                  3    11    16    10         135.00000   -0.00000
   96 Torsion                  4    12    13     5           0.00000    0.00000
   97 Torsion                  4    12    13    10         135.00000   -0.00000
   98 Torsion                  4    12    13    11        -135.00000   -0.00000
   99 Torsion                  4    12    14     6           0.00000    0.00000
  100 Torsion                  4    12    14     9        -135.00000    0.00000
  101 Torsion                  4    12    14    11         135.00000    0.00000
  102 Torsion                  4    12    15     7           0.00000    0.00000
  103 Torsion                  4    12    15     9         135.00000   -0.00000
  104 Torsion                  4    12    15    10        -135.00000   -0.00000
  105 Torsion                  5    13    10    15         135.00000    0.00000
  106 Torsion                  5    13    10    16        -135.00000    0.00000
  107 Torsion                  5    13    11    14        -135.00000   -0.00000
  108 Torsion                  5    13    11    16         135.00000   -0.00000
  109 Torsion                  5    13    12    14         135.00000    0.00000
  110 Torsion                  5    13    12    15        -135.00000    0.00000
  111 Torsion                  6    14     9    15        -135.00000    0.00000
  112 Torsion                  6    14     9    16         135.00000    0.00000
  113 Torsion                  6    14    11    13         135.00000    0.00000
  114 Torsion                  6    14    11    16        -135.00000    0.00000
  115 Torsion                  6    14    12    13        -135.00000   -0.00000
  116 Torsion                  6    14    12    15         135.00000   -0.00000
  117 Torsion                  7    15     9    14         135.00000   -0.00000
  118 Torsion                  7    15     9    16        -135.00000   -0.00000
  119 Torsion                  7    15    10    13        -135.00000    0.00000
  120 Torsion                  7    15    10    16         135.00000    0.00000
  121 Torsion                  7    15    12    13         135.00000    0.00000
  122 Torsion                  7    15    12    14        -135.00000    0.00000
  123 Torsion                  8    16     9    14        -135.00000    0.00000
  124 Torsion                  8    16     9    15         135.00000    0.00000
  125 Torsion                  8    16    10    13         135.00000   -0.00000
  126 Torsion                  8    16    10    15        -135.00000   -0.00000
  127 Torsion                  8    16    11    13        -135.00000    0.00000
  128 Torsion                  8    16    11    14         135.00000    0.00000
  129 Torsion                  9    14    11    13         -90.00000    0.00000
  130 Torsion                  9    14    11    16           0.00000    0.00000
  131 Torsion                  9    14    12    13          90.00000    0.00000
  132 Torsion                  9    14    12    15           0.00000    0.00000
  133 Torsion                  9    15    10    13          90.00000    0.00000
  134 Torsion                  9    15    10    16           0.00000    0.00000
  135 Torsion                  9    15    12    13         -90.00000    0.00000
  136 Torsion                  9    15    12    14           0.00000    0.00000
  137 Torsion                  9    16    10    13         -90.00000    0.00000
  138 Torsion                  9    16    10    15           0.00000    0.00000
  139 Torsion                  9    16    11    13          90.00000    0.00000
  140 Torsion                  9    16    11    14           0.00000    0.00000
  141 Torsion                 10    13    11    14          90.00000    0.00000
  142 Torsion                 10    13    11    16           0.00000    0.00000
  143 Torsion                 10    13    12    14         -90.00000    0.00000
  144 Torsion                 10    13    12    15           0.00000    0.00000
  145 Torsion                 10    15     9    14         -90.00000    0.00000
  146 Torsion                 10    15     9    16           0.00000    0.00000
  147 Torsion                 10    15    12    13           0.00000    0.00000
  148 Torsion                 10    15    12    14          90.00000    0.00000
  149 Torsion                 10    16     9    14          90.00000    0.00000
  150 Torsion                 10    16     9    15           0.00000    0.00000
  151 Torsion                 10    16    11    13           0.00000    0.00000
  152 Torsion                 10    16    11    14         -90.00000    0.00000
  153 Torsion                 11    13    10    15         -90.00000    0.00000
  154 Torsion                 11    13    10    16           0.00000    0.00000
  155 Torsion                 11    13    12    14           0.00000    0.00000
  156 Torsion                 11    13    12    15          90.00000    0.00000
  157 Torsion                 11    14     9    15          90.00000    0.00000
  158 Torsion                 11    14     9    16           0.00000    0.00000
  159 Torsion                 11    14    12    13           0.00000    0.00000
  160 Torsion                 11    14    12    15         -90.00000    0.00000
  161 Torsion                 11    16     9    14           0.00000    0.00000
  162 Torsion                 11    16     9    15         -90.00000    0.00000
  163 Torsion                 11    16    10    13           0.00000    0.00000
  164 Torsion                 11    16    10    15          90.00000    0.00000
  165 Torsion                 12    13    10    15           0.00000    0.00000
  166 Torsion                 12    13    10    16          90.00000    0.00000
  167 Torsion                 12    13    11    14           0.00000    0.00000
  168 Torsion                 12    13    11    16         -90.00000    0.00000
  169 Torsion                 12    14     9    15           0.00000    0.00000
  170 Torsion                 12    14     9    16         -90.00000    0.00000
  171 Torsion                 12    14    11    13           0.00000    0.00000
  172 Torsion                 12    14    11    16          90.00000    0.00000
  173 Torsion                 12    15     9    14           0.00000    0.00000
  174 Torsion                 12    15     9    16          90.00000    0.00000
  175 Torsion                 12    15    10    13           0.00000    0.00000
  176 Torsion                 12    15    10    16         -90.00000    0.00000

 ==============================================================================
                                internuclear distances
 ------------------------------------------------------------------------------
       center one      |      center two      | atomic units |  angstroms
 ------------------------------------------------------------------------------
    9 C                |   1 H                |     2.08384  |     1.10272
   10 C                |   2 H                |     2.08384  |     1.10272
   11 C                |   3 H                |     2.08384  |     1.10272
   12 C                |   4 H                |     2.08384  |     1.10272
   13 C                |   5 H                |     2.08384  |     1.10272
   13 C                |  10 C                |     2.99354  |     1.58411
   13 C                |  11 C                |     2.99354  |     1.58411
   13 C                |  12 C                |     2.99354  |     1.58411
   14 C                |   6 H                |     2.08384  |     1.10272
   14 C                |   9 C                |     2.99354  |     1.58411
   14 C                |  11 C                |     2.99354  |     1.58411
   14 C                |  12 C                |     2.99354  |     1.58411
   15 C                |   7 H                |     2.08384  |     1.10272
   15 C                |   9 C                |     2.99354  |     1.58411
   15 C                |  10 C                |     2.99354  |     1.58411
   15 C                |  12 C                |     2.99354  |     1.58411
   16 C                |   8 H                |     2.08384  |     1.10272
   16 C                |   9 C                |     2.99354  |     1.58411
   16 C                |  10 C                |     2.99354  |     1.58411
   16 C                |  11 C                |     2.99354  |     1.58411
 ------------------------------------------------------------------------------
                         number of included internuclear distances:         20
 ==============================================================================



 ==============================================================================
                                 internuclear angles
 ------------------------------------------------------------------------------
        center 1       |       center 2       |       center 3       |  degrees
 ------------------------------------------------------------------------------
    1 H                |   9 C                |  14 C                |   125.26
    1 H                |   9 C                |  15 C                |   125.26
    1 H                |   9 C                |  16 C                |   125.26
   14 C                |   9 C                |  15 C                |    90.00
   14 C                |   9 C                |  16 C                |    90.00
   15 C                |   9 C                |  16 C                |    90.00
    2 H                |  10 C                |  13 C                |   125.26
    2 H                |  10 C                |  15 C                |   125.26
    2 H                |  10 C                |  16 C                |   125.26
   13 C                |  10 C                |  15 C                |    90.00
   13 C                |  10 C                |  16 C                |    90.00
   15 C                |  10 C                |  16 C                |    90.00
    3 H                |  11 C                |  13 C                |   125.26
    3 H                |  11 C                |  14 C                |   125.26
    3 H                |  11 C                |  16 C                |   125.26
   13 C                |  11 C                |  14 C                |    90.00
   13 C                |  11 C                |  16 C                |    90.00
   14 C                |  11 C                |  16 C                |    90.00
    4 H                |  12 C                |  13 C                |   125.26
    4 H                |  12 C                |  14 C                |   125.26
    4 H                |  12 C                |  15 C                |   125.26
   13 C                |  12 C                |  14 C                |    90.00
   13 C                |  12 C                |  15 C                |    90.00
   14 C                |  12 C                |  15 C                |    90.00
    5 H                |  13 C                |  10 C                |   125.26
    5 H                |  13 C                |  11 C                |   125.26
    5 H                |  13 C                |  12 C                |   125.26
   10 C                |  13 C                |  11 C                |    90.00
   10 C                |  13 C                |  12 C                |    90.00
   11 C                |  13 C                |  12 C                |    90.00
    6 H                |  14 C                |   9 C                |   125.26
    6 H                |  14 C                |  11 C                |   125.26
    6 H                |  14 C                |  12 C                |   125.26
    9 C                |  14 C                |  11 C                |    90.00
    9 C                |  14 C                |  12 C                |    90.00
   11 C                |  14 C                |  12 C                |    90.00
    7 H                |  15 C                |   9 C                |   125.26
    7 H                |  15 C                |  10 C                |   125.26
    7 H                |  15 C                |  12 C                |   125.26
    9 C                |  15 C                |  10 C                |    90.00
    9 C                |  15 C                |  12 C                |    90.00
   10 C                |  15 C                |  12 C                |    90.00
    8 H                |  16 C                |   9 C                |   125.26
    8 H                |  16 C                |  10 C                |   125.26
    8 H                |  16 C                |  11 C                |   125.26
    9 C                |  16 C                |  10 C                |    90.00
    9 C                |  16 C                |  11 C                |    90.00
   10 C                |  16 C                |  11 C                |    90.00
 ------------------------------------------------------------------------------
                            number of included internuclear angles:         48
 ==============================================================================




 Task  times  cpu:    36531.5s     wall:    36501.6s
 Summary of allocated global arrays
-----------------------------------
  No active global arrays



                         GA Statistics for process    0
                         ------------------------------

       create   destroy   get      put      acc     scatter   gather  read&inc
calls: 5.51e+04 5.51e+04 1.63e+08 1.71e+06 2.22e+07    0        0     3.94e+07 
number of processes/call 1.00e+00 1.00e+00 1.00e+00 0.00e+00 0.00e+00
bytes total:             3.60e+12 2.62e+10 1.30e+11 0.00e+00 0.00e+00 3.15e+08
bytes remote:            0.00e+00 0.00e+00 0.00e+00 0.00e+00 0.00e+00 0.00e+00
Max memory consumed for GA by this process: 207815296 bytes
MA_summarize_allocated_blocks: starting scan ...
MA_summarize_allocated_blocks: scan completed: 0 heap blocks, 0 stack blocks
MA usage statistics:

	allocation statistics:
					      heap	     stack
					      ----	     -----
	current number of blocks	         0	         0
	maximum number of blocks	        19	        40
	current total bytes		         0	         0
	maximum total bytes		     80152	  37528984
	maximum total K-bytes		        81	     37529
	maximum total M-bytes		         1	        38


                                NWChem Input Module
                                -------------------





                                     CITATION
                                     --------
                Please cite the following reference when publishing
                           results obtained with NWChem:

                 M. Valiev, E.J. Bylaska, N. Govind, K. Kowalski,
              T.P. Straatsma, H.J.J. van Dam, D. Wang, J. Nieplocha,
                        E. Apra, T.L. Windus, W.A. de Jong
                 "NWChem: a comprehensive and scalable open-source
                  solution for large scale molecular simulations"
                      Comput. Phys. Commun. 181, 1477 (2010)
                           doi:10.1016/j.cpc.2010.04.018

                              AUTHORS & CONTRIBUTORS
                              ----------------------
          E. Apra, E. J. Bylaska, W. A. de Jong, N. Govind, K. Kowalski,
       T. P. Straatsma, M. Valiev, H. J. J. van Dam, D. Wang, T. L. Windus,
        J. Hammond, J. Autschbach, K. Bhaskaran-Nair, J. Brabec, K. Lopata,
          F. Aquino, S. Hirata, M. T. Hackler, T. Risthaus, M. Malagoli,
   A. Otero-de-la-Roza, J. Mullin, P. Nichols, R. Peverati, J. Pittner, Y. Zhao,
         P.-D. Fan , A. Fonari, R. J. Harrison, M. Dupuis, D. Silverstein,
    D. M. A. S mith, J. Nieplocha, V. Tipparaju, M. Krishnan, B. E. Van Kuiken,
        A. Vazquez-Mayagoitia, L. Jensen, M. Swart, Q. Wu, T. Van Voorhis,
     A. A. Auer, M. Nooijen, L. D. Crosby, E. Brown, G. Cisneros, G. I . Fann,
     H. Fruchtl, J. Garza, K. Hirao, R. Kendall, J. A. Nichols, K. Tsemekhman,
     K. Wolinski, J. Anchell, D. Bernholdt, P. Borowski , T. Clark, D. Clerc,
      H. Dachsel, M. Deegan, K. Dyall, D. Elwood, E. Glendening, M. Gutowski,
      A. Hess, J. Jaffe, B. Johnson, J. Ju, R. Kobayashi, R. Kutteh, Z. Lin,
   R. Littlefield, X. Long, B. Meng, T. Nakajima, S. Niu, L. Pollack, M. Rosing,
   K. Glaesemann, G. Sandrone, M. Stave, H. Taylor, G. Thomas, J. H. van Lenthe,
                                A. Wong, Z. Zhang.

 Total times  cpu:    36531.7s     wall:    36502.6s
