
                                 *****************
                                 * O   R   C   A *
                                 *****************

           --- An Ab Initio, DFT and Semiempirical electronic structure package ---

                  #######################################################
                  #                        -***-                        #
                  #  Department of molecular theory and spectroscopy    #
                  #              Directorship: Frank Neese              #
                  # Max Planck Institute for Chemical Energy Conversion #
                  #                  D-45470 Muelheim/Ruhr              #
                  #                       Germany                       #
                  #                                                     #
                  #                  All rights reserved                #
                  #                        -***-                        #
                  #######################################################


                         Program Version 3.0.3 - RELEASE   -


 With contributions from (in alphabetic order):
   Ute Becker             : Parallelization
   Dmytro Bykov           : SCF Hessian
   Dmitry Ganyushin       : Spin-Orbit,Spin-Spin,Magnetic field MRCI
   Andreas Hansen         : Spin unrestricted coupled pair/coupled cluster methods
   Dimitrios Liakos       : Extrapolation schemes; parallel MDCI
   Robert Izsak           : Overlap fitted RIJCOSX, COSX-SCS-MP3
   Christian Kollmar      : KDIIS, OOCD, Brueckner-CCSD(T), CCSD density
   Simone Kossmann        : Meta GGA functionals, TD-DFT gradient, OOMP2, MP2 Hessian
   Taras Petrenko         : DFT Hessian,TD-DFT gradient, ASA and ECA modules, normal mode analysis, Resonance Raman, ABS, FL, XAS/XES, NRVS
   Christoph Reimann      : Effective Core Potentials
   Michael Roemelt        : Restricted open shell CIS
   Christoph Riplinger    : Improved optimizer, TS searches, QM/MM, DLPNO-CCSD
   Barbara Sandhoefer     : DKH picture change effects
   Igor Schapiro          : Molecular dynamics
   Kantharuban Sivalingam : CASSCF convergence, NEVPT2
   Boris Wezisla          : Elementary symmetry handling
   Frank Wennmohs         : Technical directorship


 We gratefully acknowledge several colleagues who have allowed us to
 interface, adapt or use parts of their codes:
   Stefan Grimme, W. Hujo, H. Kruse, T. Risthaus : VdW corrections, initial TS optimization,
                                                   DFT functionals, gCP
   Ed Valeev                                     : LibInt (2-el integral package), F12 methods
   Garnet Chan, S. Sharma, R. Olivares           : DMRG
   Ulf Ekstrom                                   : XCFun DFT Library
   Mihaly Kallay                                 : mrcc  (arbitrary order and MRCC methods)
   Andreas Klamt, Michael Diedenhofen            : otool_cosmo (COSMO solvation model)
   Frank Weinhold                                : gennbo (NPA and NBO analysis)
   Christopher J. Cramer and Donald G. Truhlar   : smd solvation model


 Your calculation uses the libint2 library for the computation of 2-el integrals
 For citations please refer to: http://libint.valeyev.net

 This ORCA versions uses:
   CBLAS   interface :  Fast vector & matrix operations
   LAPACKE interface :  Fast linear algebra routines
   SCALAPACK package :  Parallel linear algebra routines


Your calculation utilizes the basis: cc-VTZ
Cite in your paper:
 H     : T.H. Dunning, Jr. J. Chem. Phys. 90, 1007 (1989).
 He    : D.E. Woon and T.H. Dunning, Jr. J. Chem. Phys. 100, 2975 (1994).
Li - Ne: T.H. Dunning, Jr. J. Chem. Phys. 90, 1007 (1989).
Na - Mg: D.E. Woon and T.H. Dunning, Jr.  (to be published)
Al - Ar: D.E. Woon and T.H. Dunning, Jr.  J. Chem. Phys. 98, 1358 (1993).

Your calculation utilizes polarization functions from the basis: cc-pVTZ
Cite in your paper:
 H     : T.H. Dunning, Jr. J. Chem. Phys. 90, 1007 (1989).
 He    : D.E. Woon and T.H. Dunning, Jr. J. Chem. Phys. 100, 2975 (1994).
Li - Ne: T.H. Dunning, Jr. J. Chem. Phys. 90, 1007 (1989).
Na - Mg: D.E. Woon and T.H. Dunning, Jr.  (to be published)
Al - Ar: D.E. Woon and T.H. Dunning, Jr.  J. Chem. Phys. 98, 1358 (1993).

================================================================================
                                        WARNINGS
                       Please study these warnings very carefully!
================================================================================
Now building the actual basis set

WARNING: The environment variable RSH_COMMAND is not set!
  ===> : All Displacements for the Numerical Hessian calculation
         will be started on localhost

WARNING: Geometry Optimization
  ===> : Switching off AutoStart
         For restart on a previous wavefunction, please use MOREAD


INFO   : the flag for use of LIBINT has been found!

================================================================================
                                       INPUT FILE
================================================================================
NAME = /home/vladimir/Quantum_Chemistry/ORCA/C8H8/cubane/optimize/CC/LPNO_CCSD/cc-pVTZ/./cubane.inp
|  1> # ================================================================
|  2> # Orca input file for cubane
|  3> # ================================================================
|  4> ! LPNO-CCSD cc-pVTZ cc-pVTZ/C TightSCF TightOpt
|  5> ! NumGrad
|  6> ! PAL4
|  7> 
|  8> * xyz 0 1
|  9>   H                     1.41035684     1.41035685     1.41035685
| 10>   H                    -1.41035684    -1.41035685     1.41035685
| 11>   H                    -1.41035684     1.41035685    -1.41035685
| 12>   H                     1.41035684    -1.41035685    -1.41035685
| 13>   H                    -1.41035684    -1.41035685    -1.41035685
| 14>   H                     1.41035684     1.41035685    -1.41035685
| 15>   H                     1.41035684    -1.41035685     1.41035685
| 16>   H                    -1.41035684     1.41035685     1.41035685
| 17>   C                     0.78381707     0.78381707     0.78381707
| 18>   C                    -0.78381707    -0.78381707     0.78381707
| 19>   C                    -0.78381707     0.78381707    -0.78381707
| 20>   C                     0.78381707    -0.78381707    -0.78381707
| 21>   C                    -0.78381707    -0.78381707    -0.78381707
| 22>   C                     0.78381707     0.78381707    -0.78381707
| 23>   C                     0.78381707    -0.78381707     0.78381707
| 24>   C                    -0.78381707     0.78381707     0.78381707
| 25> *
| 26> 
| 27>                          ****END OF INPUT****
================================================================================

                       *****************************
                       * Geometry Optimization Run *
                       *****************************

Geometry optimization settings:
Update method            Update   .... BFGS
Choice of coordinates    CoordSys .... Redundant Internals
Initial Hessian          InHess   .... Almoef's Model

Convergence Tolerances:
Energy Change            TolE     ....  1.0000e-06 Eh
Max. Gradient            TolMAXG  ....  1.0000e-04 Eh/bohr
RMS Gradient             TolRMSG  ....  3.0000e-05 Eh/bohr
Max. Displacement        TolMAXD  ....  1.0000e-03 bohr
RMS Displacement         TolRMSD  ....  6.0000e-04 bohr

------------------------------------------------------------------------------
                        ORCA OPTIMIZATION COORDINATE SETUP
------------------------------------------------------------------------------

The optimization will be done in new redundant internal coordinates
Making redundant internal coordinates   ...  (new redundants) done
Evaluating the initial hessian          ...  (Almloef) done
Evaluating the coordinates              ...  done
Calculating the B-matrix                .... done
Calculating the G-matrix                .... done
Diagonalizing the G-matrix              .... done
The first mode is                       ....  134
The number of degrees of freedom        ....   42

    -----------------------------------------------------------------
                    Redundant Internal Coordinates


    -----------------------------------------------------------------
         Definition                    Initial Value    Approx d2E/dq
    -----------------------------------------------------------------
      1. B(C   8,H   0)                  1.0852         0.366508   
      2. B(C   9,H   1)                  1.0852         0.366508   
      3. B(C  10,H   2)                  1.0852         0.366508   
      4. B(C  11,H   3)                  1.0852         0.366508   
      5. B(C  12,C   9)                  1.5676         0.325338   
      6. B(C  12,C  10)                  1.5676         0.325338   
      7. B(C  12,H   4)                  1.0852         0.366508   
      8. B(C  12,C  11)                  1.5676         0.325338   
      9. B(C  13,C  11)                  1.5676         0.325338   
     10. B(C  13,C  10)                  1.5676         0.325338   
     11. B(C  13,C   8)                  1.5676         0.325338   
     12. B(C  13,H   5)                  1.0852         0.366508   
     13. B(C  14,C   9)                  1.5676         0.325338   
     14. B(C  14,C   8)                  1.5676         0.325338   
     15. B(C  14,H   6)                  1.0852         0.366508   
     16. B(C  14,C  11)                  1.5676         0.325338   
     17. B(C  15,C  10)                  1.5676         0.325338   
     18. B(C  15,C   9)                  1.5676         0.325338   
     19. B(C  15,C   8)                  1.5676         0.325338   
     20. B(C  15,H   7)                  1.0852         0.366508   
     21. A(H   0,C   8,C  13)          125.2644         0.317982   
     22. A(H   0,C   8,C  15)          125.2644         0.317982   
     23. A(C  13,C   8,C  15)           90.0000         0.346708   
     24. A(C  14,C   8,C  15)           90.0000         0.346708   
     25. A(H   0,C   8,C  14)          125.2644         0.317982   
     26. A(C  13,C   8,C  14)           90.0000         0.346708   
     27. A(H   1,C   9,C  14)          125.2644         0.317982   
     28. A(C  14,C   9,C  15)           90.0000         0.346708   
     29. A(C  12,C   9,C  15)           90.0000         0.346708   
     30. A(H   1,C   9,C  12)          125.2644         0.317982   
     31. A(H   1,C   9,C  15)          125.2644         0.317982   
     32. A(C  12,C   9,C  14)           90.0000         0.346708   
     33. A(C  12,C  10,C  13)           90.0000         0.346708   
     34. A(H   2,C  10,C  13)          125.2644         0.317982   
     35. A(C  12,C  10,C  15)           90.0000         0.346708   
     36. A(H   2,C  10,C  15)          125.2644         0.317982   
     37. A(C  13,C  10,C  15)           90.0000         0.346708   
     38. A(H   2,C  10,C  12)          125.2644         0.317982   
     39. A(C  13,C  11,C  14)           90.0000         0.346708   
     40. A(C  12,C  11,C  14)           90.0000         0.346708   
     41. A(H   3,C  11,C  14)          125.2644         0.317982   
     42. A(H   3,C  11,C  12)          125.2644         0.317982   
     43. A(C  12,C  11,C  13)           90.0000         0.346708   
     44. A(H   3,C  11,C  13)          125.2644         0.317982   
     45. A(H   4,C  12,C  11)          125.2644         0.317982   
     46. A(C   9,C  12,C  10)           90.0000         0.346708   
     47. A(C  10,C  12,C  11)           90.0000         0.346708   
     48. A(H   4,C  12,C  10)          125.2644         0.317982   
     49. A(C   9,C  12,C  11)           90.0000         0.346708   
     50. A(H   4,C  12,C   9)          125.2644         0.317982   
     51. A(C   8,C  13,C  10)           90.0000         0.346708   
     52. A(H   5,C  13,C  10)          125.2644         0.317982   
     53. A(H   5,C  13,C   8)          125.2644         0.317982   
     54. A(C  10,C  13,C  11)           90.0000         0.346708   
     55. A(C   8,C  13,C  11)           90.0000         0.346708   
     56. A(H   5,C  13,C  11)          125.2644         0.317982   
     57. A(H   6,C  14,C  11)          125.2644         0.317982   
     58. A(C   8,C  14,C   9)           90.0000         0.346708   
     59. A(H   6,C  14,C   9)          125.2644         0.317982   
     60. A(H   6,C  14,C   8)          125.2644         0.317982   
     61. A(C   9,C  14,C  11)           90.0000         0.346708   
     62. A(C   8,C  14,C  11)           90.0000         0.346708   
     63. A(C   9,C  15,C  10)           90.0000         0.346708   
     64. A(C   8,C  15,C  10)           90.0000         0.346708   
     65. A(H   7,C  15,C  10)          125.2644         0.317982   
     66. A(C   8,C  15,C   9)           90.0000         0.346708   
     67. A(H   7,C  15,C   9)          125.2644         0.317982   
     68. A(H   7,C  15,C   8)          125.2644         0.317982   
     69. D(C  11,C  12,C  10,C  13)      0.0000         0.008645   
     70. D(C   9,C  12,C  10,C  13)     90.0000         0.008645   
     71. D(C   9,C  12,C  11,H   3)    135.0000         0.008645   
     72. D(C  11,C  12,C   9,C  15)     90.0000         0.008645   
     73. D(H   4,C  12,C  11,H   3)      0.0000         0.008645   
     74. D(H   4,C  12,C  10,H   2)      0.0000         0.008645   
     75. D(H   4,C  12,C  10,C  13)   -135.0000         0.008645   
     76. D(C   9,C  12,C  11,C  14)      0.0000         0.008645   
     77. D(C   9,C  12,C  11,C  13)    -90.0000         0.008645   
     78. D(C  10,C  12,C  11,C  13)      0.0000         0.008645   
     79. D(C  11,C  12,C   9,H   1)   -135.0000         0.008645   
     80. D(C  10,C  12,C  11,C  14)     90.0000         0.008645   
     81. D(C  10,C  12,C   9,C  14)    -90.0000         0.008645   
     82. D(C  11,C  12,C   9,C  14)      0.0000         0.008645   
     83. D(C  11,C  12,C  10,H   2)    135.0000         0.008645   
     84. D(H   4,C  12,C  11,C  14)   -135.0000         0.008645   
     85. D(H   4,C  12,C   9,H   1)      0.0000         0.008645   
     86. D(C   9,C  12,C  10,H   2)   -135.0000         0.008645   
     87. D(H   4,C  12,C   9,C  15)   -135.0000         0.008645   
     88. D(C  10,C  12,C  11,H   3)   -135.0000         0.008645   
     89. D(C  10,C  12,C   9,H   1)    135.0000         0.008645   
     90. D(C  10,C  12,C   9,C  15)      0.0000         0.008645   
     91. D(H   4,C  12,C  11,C  13)    135.0000         0.008645   
     92. D(H   4,C  12,C  10,C  15)    135.0000         0.008645   
     93. D(H   4,C  12,C   9,C  14)    135.0000         0.008645   
     94. D(C  11,C  12,C  10,C  15)    -90.0000         0.008645   
     95. D(C   9,C  12,C  10,C  15)      0.0000         0.008645   
     96. D(H   5,C  13,C   8,C  15)    135.0000         0.008645   
     97. D(H   5,C  13,C   8,C  14)   -135.0000         0.008645   
     98. D(C  10,C  13,C   8,H   0)   -135.0000         0.008645   
     99. D(H   5,C  13,C   8,H   0)      0.0000         0.008645   
    100. D(C  10,C  13,C  11,C  14)    -90.0000         0.008645   
    101. D(C  10,C  13,C  11,H   3)    135.0000         0.008645   
    102. D(C   8,C  13,C  11,H   3)   -135.0000         0.008645   
    103. D(H   5,C  13,C  11,C  14)    135.0000         0.008645   
    104. D(C   8,C  13,C  11,C  12)     90.0000         0.008645   
    105. D(C   8,C  13,C  11,C  14)      0.0000         0.008645   
    106. D(C  11,C  13,C  10,C  12)      0.0000         0.008645   
    107. D(C  11,C  13,C  10,H   2)   -135.0000         0.008645   
    108. D(C   8,C  13,C  10,C  15)      0.0000         0.008645   
    109. D(C  10,C  13,C  11,C  12)      0.0000         0.008645   
    110. D(C   8,C  13,C  10,C  12)    -90.0000         0.008645   
    111. D(C   8,C  13,C  10,H   2)    135.0000         0.008645   
    112. D(C  11,C  13,C  10,C  15)     90.0000         0.008645   
    113. D(H   5,C  13,C  11,H   3)      0.0000         0.008645   
    114. D(H   5,C  13,C  11,C  12)   -135.0000         0.008645   
    115. D(C  11,C  13,C   8,C  14)      0.0000         0.008645   
    116. D(H   5,C  13,C  10,H   2)      0.0000         0.008645   
    117. D(C  11,C  13,C   8,C  15)    -90.0000         0.008645   
    118. D(H   5,C  13,C  10,C  15)   -135.0000         0.008645   
    119. D(C  11,C  13,C   8,H   0)    135.0000         0.008645   
    120. D(C  10,C  13,C   8,C  15)      0.0000         0.008645   
    121. D(C  10,C  13,C   8,C  14)     90.0000         0.008645   
    122. D(H   5,C  13,C  10,C  12)    135.0000         0.008645   
    123. D(C  11,C  14,C   8,C  13)      0.0000         0.008645   
    124. D(C  11,C  14,C   8,H   0)   -135.0000         0.008645   
    125. D(C   9,C  14,C   8,C  15)      0.0000         0.008645   
    126. D(C   9,C  14,C   8,C  13)    -90.0000         0.008645   
    127. D(C   9,C  14,C   8,H   0)    135.0000         0.008645   
    128. D(H   6,C  14,C   8,C  15)   -135.0000         0.008645   
    129. D(H   6,C  14,C   8,C  13)    135.0000         0.008645   
    130. D(C  11,C  14,C   8,C  15)     90.0000         0.008645   
    131. D(H   6,C  14,C   8,H   0)      0.0000         0.008645   
    132. D(C   9,C  14,C  11,C  13)     90.0000         0.008645   
    133. D(C   9,C  14,C  11,C  12)      0.0000         0.008645   
    134. D(C   8,C  14,C  11,C  13)      0.0000         0.008645   
    135. D(C   8,C  14,C  11,C  12)    -90.0000         0.008645   
    136. D(C   8,C  14,C  11,H   3)    135.0000         0.008645   
    137. D(H   6,C  14,C  11,C  12)    135.0000         0.008645   
    138. D(H   6,C  14,C  11,H   3)      0.0000         0.008645   
    139. D(C  11,C  14,C   9,C  15)    -90.0000         0.008645   
    140. D(C  11,C  14,C   9,C  12)      0.0000         0.008645   
    141. D(C  11,C  14,C   9,H   1)    135.0000         0.008645   
    142. D(H   6,C  14,C  11,C  13)   -135.0000         0.008645   
    143. D(C   8,C  14,C   9,C  15)      0.0000         0.008645   
    144. D(C   8,C  14,C   9,C  12)     90.0000         0.008645   
    145. D(C   8,C  14,C   9,H   1)   -135.0000         0.008645   
    146. D(C   9,C  14,C  11,H   3)   -135.0000         0.008645   
    147. D(H   6,C  14,C   9,C  15)    135.0000         0.008645   
    148. D(H   6,C  14,C   9,C  12)   -135.0000         0.008645   
    149. D(H   6,C  14,C   9,H   1)      0.0000         0.008645   
    150. D(C   9,C  15,C  10,C  13)    -90.0000         0.008645   
    151. D(C   9,C  15,C  10,H   2)    135.0000         0.008645   
    152. D(C   8,C  15,C  10,C  13)      0.0000         0.008645   
    153. D(C   8,C  15,C  10,C  12)     90.0000         0.008645   
    154. D(H   7,C  15,C  10,C  13)    135.0000         0.008645   
    155. D(H   7,C  15,C  10,C  12)   -135.0000         0.008645   
    156. D(H   7,C  15,C  10,H   2)      0.0000         0.008645   
    157. D(C  10,C  15,C   9,C  14)     90.0000         0.008645   
    158. D(C  10,C  15,C   9,C  12)      0.0000         0.008645   
    159. D(C  10,C  15,C   9,H   1)   -135.0000         0.008645   
    160. D(C   8,C  15,C   9,C  14)      0.0000         0.008645   
    161. D(C   8,C  15,C   9,C  12)    -90.0000         0.008645   
    162. D(C   8,C  15,C   9,H   1)    135.0000         0.008645   
    163. D(H   7,C  15,C   9,C  14)   -135.0000         0.008645   
    164. D(H   7,C  15,C   9,C  12)    135.0000         0.008645   
    165. D(H   7,C  15,C   9,H   1)      0.0000         0.008645   
    166. D(C  10,C  15,C   8,C  14)    -90.0000         0.008645   
    167. D(C  10,C  15,C   8,C  13)      0.0000         0.008645   
    168. D(C  10,C  15,C   8,H   0)    135.0000         0.008645   
    169. D(C   9,C  15,C   8,C  14)      0.0000         0.008645   
    170. D(C   8,C  15,C  10,H   2)   -135.0000         0.008645   
    171. D(C   9,C  15,C   8,C  13)     90.0000         0.008645   
    172. D(C   9,C  15,C   8,H   0)   -135.0000         0.008645   
    173. D(H   7,C  15,C   8,C  14)    135.0000         0.008645   
    174. D(C   9,C  15,C  10,C  12)      0.0000         0.008645   
    175. D(H   7,C  15,C   8,C  13)   -135.0000         0.008645   
    176. D(H   7,C  15,C   8,H   0)      0.0000         0.008645   
    -----------------------------------------------------------------

Number of atoms                         .... 16
Number of degrees of freedom            .... 176

         *************************************************************
         *                GEOMETRY OPTIMIZATION CYCLE   1            *
         *************************************************************
---------------------------------
CARTESIAN COORDINATES (ANGSTROEM)
---------------------------------
  H      1.410357    1.410357    1.410357
  H     -1.410357   -1.410357    1.410357
  H     -1.410357    1.410357   -1.410357
  H      1.410357   -1.410357   -1.410357
  H     -1.410357   -1.410357   -1.410357
  H      1.410357    1.410357   -1.410357
  H      1.410357   -1.410357    1.410357
  H     -1.410357    1.410357    1.410357
  C      0.783817    0.783817    0.783817
  C     -0.783817   -0.783817    0.783817
  C     -0.783817    0.783817   -0.783817
  C      0.783817   -0.783817   -0.783817
  C     -0.783817   -0.783817   -0.783817
  C      0.783817    0.783817   -0.783817
  C      0.783817   -0.783817    0.783817
  C     -0.783817    0.783817    0.783817

----------------------------
CARTESIAN COORDINATES (A.U.)
----------------------------
  NO LB      ZA    FRAG    MASS        X           Y           Z
   0 H     1.0000    0     1.008          2.665188178702593          2.665188197599855          2.665188197599855
   1 H     1.0000    0     1.008         -2.665188178702593         -2.665188197599855          2.665188197599855
   2 H     1.0000    0     1.008         -2.665188178702593          2.665188197599855         -2.665188197599855
   3 H     1.0000    0     1.008          2.665188178702593         -2.665188197599855         -2.665188197599855
   4 H     1.0000    0     1.008         -2.665188178702593         -2.665188197599855         -2.665188197599855
   5 H     1.0000    0     1.008          2.665188178702593          2.665188197599855         -2.665188197599855
   6 H     1.0000    0     1.008          2.665188178702593         -2.665188197599855          2.665188197599855
   7 H     1.0000    0     1.008         -2.665188178702593          2.665188197599855          2.665188197599855
   8 C     6.0000    0    12.011          1.481199601392583          1.481199601392583          1.481199601392583
   9 C     6.0000    0    12.011         -1.481199601392583         -1.481199601392583          1.481199601392583
  10 C     6.0000    0    12.011         -1.481199601392583          1.481199601392583         -1.481199601392583
  11 C     6.0000    0    12.011          1.481199601392583         -1.481199601392583         -1.481199601392583
  12 C     6.0000    0    12.011         -1.481199601392583         -1.481199601392583         -1.481199601392583
  13 C     6.0000    0    12.011          1.481199601392583          1.481199601392583         -1.481199601392583
  14 C     6.0000    0    12.011          1.481199601392583         -1.481199601392583          1.481199601392583
  15 C     6.0000    0    12.011         -1.481199601392583          1.481199601392583          1.481199601392583

--------------------------------
INTERNAL COORDINATES (ANGSTROEM)
--------------------------------
 H      0   0   0   0.000000     0.000     0.000
 H      1   0   0   3.989092     0.000     0.000
 H      1   2   0   3.989092    60.000     0.000
 H      2   1   3   3.989092    60.000    70.529
 H      4   2   1   2.820714    45.000   234.736
 H      3   1   2   2.820714    45.000   234.736
 H      2   1   3   2.820714    45.000   125.264
 H      1   2   3   2.820714    45.000    54.736
 C      1   2   3   1.085199    35.264   324.736
 C      2   1   3   1.085199    35.264    35.264
 C      3   1   2   1.085199    35.264   324.736
 C      4   2   1   1.085199    35.264   324.736
 C      5   4   2   1.085199    54.736    45.000
 C      6   3   1   1.085199    54.736    45.000
 C      7   2   1   1.085199    54.736   315.000
 C      8   1   2   1.085199    54.736   315.000

---------------------------
INTERNAL COORDINATES (A.U.)
---------------------------
 H      0   0   0   0.000000     0.000     0.000
 H      1   0   0   7.538291     0.000     0.000
 H      1   2   0   7.538291    60.000     0.000
 H      2   1   3   7.538291    60.000    70.529
 H      4   2   1   5.330376    45.000   234.736
 H      3   1   2   5.330376    45.000   234.736
 H      2   1   3   5.330376    45.000   125.264
 H      1   2   3   5.330376    45.000    54.736
 C      1   2   3   2.050728    35.264   324.736
 C      2   1   3   2.050728    35.264    35.264
 C      3   1   2   2.050728    35.264   324.736
 C      4   2   1   2.050728    35.264   324.736
 C      5   4   2   2.050728    54.736    45.000
 C      6   3   1   2.050728    54.736    45.000
 C      7   2   1   2.050728    54.736   315.000
 C      8   1   2   2.050728    54.736   315.000

---------------------
BASIS SET INFORMATION
---------------------
There are 2 groups of distinct atoms

 Group   1 Type H   : 5s2p1d contracted to 3s2p1d pattern {311/11/1}
 Group   2 Type C   : 18s5p2d1f contracted to 4s3p2d1f pattern {8811/311/11/1}

Atom   0H    basis set group =>   1
Atom   1H    basis set group =>   1
Atom   2H    basis set group =>   1
Atom   3H    basis set group =>   1
Atom   4H    basis set group =>   1
Atom   5H    basis set group =>   1
Atom   6H    basis set group =>   1
Atom   7H    basis set group =>   1
Atom   8C    basis set group =>   2
Atom   9C    basis set group =>   2
Atom  10C    basis set group =>   2
Atom  11C    basis set group =>   2
Atom  12C    basis set group =>   2
Atom  13C    basis set group =>   2
Atom  14C    basis set group =>   2
Atom  15C    basis set group =>   2

INFORMATION: There is an auxiliary basis set but the global RI flag is NOT set

-------------------------------
AUXILIARY BASIS SET INFORMATION
-------------------------------
There are 2 groups of distinct atoms

 Group   1 Type H   : 4s3p2d1f contracted to 4s3p2d1f pattern {1111/111/11/1}
 Group   2 Type C   : 8s6p5d3f1g contracted to 8s6p5d3f1g pattern {11111111/111111/11111/111/1}

Atom   0H    basis set group =>   1
Atom   1H    basis set group =>   1
Atom   2H    basis set group =>   1
Atom   3H    basis set group =>   1
Atom   4H    basis set group =>   1
Atom   5H    basis set group =>   1
Atom   6H    basis set group =>   1
Atom   7H    basis set group =>   1
Atom   8C    basis set group =>   2
Atom   9C    basis set group =>   2
Atom  10C    basis set group =>   2
Atom  11C    basis set group =>   2
Atom  12C    basis set group =>   2
Atom  13C    basis set group =>   2
Atom  14C    basis set group =>   2
Atom  15C    basis set group =>   2


           ************************************************************
           *        Program running with 4 parallel MPI-processes     *
           *              working on a common directory               *
           ************************************************************
------------------------------------------------------------------------------
                           ORCA GTO INTEGRAL CALCULATION
------------------------------------------------------------------------------

                         BASIS SET STATISTICS AND STARTUP INFO

 # of primitive gaussian shells          ...  272
 # of primitive gaussian functions       ...  528
 # of contracted shell                   ...  128
 # of contracted basis functions         ...  352
 Highest angular momentum                ...    3
 Maximum contraction depth               ...    8
 Integral package used                   ... LIBINT
 Integral threshhold            Thresh   ...  2.500e-11
 Primitive cut-off              TCut     ...  2.500e-12


                              INTEGRAL EVALUATION

 One electron integrals                  ... done
 Pre-screening matrix                    ... done
 Shell pair data                         ... done (   0.002 sec)

           ************************************************************
           *              Shut down parallel processing               *
           ************************************************************


           ************************************************************
           *        Program running with 4 parallel MPI-processes     *
           *              working on a common directory               *
           ************************************************************
-------------------------------------------------------------------------------
                                 ORCA SCF
-------------------------------------------------------------------------------

------------
SCF SETTINGS
------------
Hamiltonian:
 Ab initio Hamiltonian  Method          .... Hartree-Fock(GTOs)


General Settings:
 Integral files         IntName         .... /home/vladimir/Quantum_Chemistry/ORCA/C8H8/cubane/optimize/CC/LPNO_CCSD/cc-pVTZ/./cubane
 Hartree-Fock type      HFTyp           .... RHF
 Total Charge           Charge          ....    0
 Multiplicity           Mult            ....    1
 Number of Electrons    NEL             ....   56
 Basis Dimension        Dim             ....  352
 Nuclear Repulsion      ENuc            ....    367.6481923962 Eh

Convergence Acceleration:
 DIIS                   CNVDIIS         .... on
   Start iteration      DIISMaxIt       ....    12
   Startup error        DIISStart       ....  0.200000
   # of expansion vecs  DIISMaxEq       ....     5
   Bias factor          DIISBfac        ....   1.050
   Max. coefficient     DIISMaxC        ....  10.000
 Newton-Raphson         CNVNR           .... off
 SOSCF                  CNVSOSCF        .... on
   Start iteration      SOSCFMaxIt      ....   150
   Startup grad/error   SOSCFStart      ....  0.003300
 Level Shifting         CNVShift        .... on
   Level shift para.    LevelShift      ....    0.2500
   Turn off err/grad.   ShiftErr        ....    0.0010
 Zerner damping         CNVZerner       .... off
 Static damping         CNVDamp         .... on
   Fraction old density DampFac         ....    0.7000
   Max. Damping (<1)    DampMax         ....    0.9800
   Min. Damping (>=0)   DampMin         ....    0.0000
   Turn off err/grad.   DampErr         ....    0.1000
 Fernandez-Rico         CNVRico         .... off

SCF Procedure:
 Maximum # iterations   MaxIter         ....   125
 SCF integral mode      SCFMode         .... Direct
   Integral package                     .... LIBINT
 Reset frequeny         DirectResetFreq ....    20
 Integral Threshold     Thresh          ....  2.500e-11 Eh
 Primitive CutOff       TCut            ....  2.500e-12 Eh

Convergence Tolerance:
 Convergence Check Mode ConvCheckMode   .... Total+1el-Energy
 Energy Change          TolE            ....  1.000e-08 Eh
 1-El. energy change                    ....  1.000e-05 Eh
 Orbital Gradient       TolG            ....  1.000e-05
 Orbital Rotation angle TolX            ....  1.000e-05
 DIIS Error             TolErr          ....  5.000e-07


Diagonalization of the overlap matrix:
Smallest eigenvalue                        ... 8.712e-06
Time for diagonalization                   ...    0.052 sec
Threshold for overlap eigenvalues          ... 1.000e-08
Number of eigenvalues below threshold      ... 0
Time for construction of square roots      ...    0.007 sec
Total time needed                          ...    0.060 sec

-------------------
DFT GRID GENERATION
-------------------

General Integration Accuracy     IntAcc      ...  4.340
Radial Grid Type                 RadialGrid  ... Gauss-Chebyshev
Angular Grid (max. acc.)         AngularGrid ... Lebedev-110
Angular grid pruning method      GridPruning ... 3 (G Style)
Weight generation scheme         WeightScheme... Becke
Basis function cutoff            BFCut       ...    1.0000e-11
Integration weight cutoff        WCut        ...    1.0000e-14
Grids for H and He will be reduced by one unit

# of grid points (after initial pruning)     ...  19600 (   0.0 sec)
# of grid points (after weights+screening)   ...  17576 (   0.0 sec)
nearest neighbour list constructed           ...    0.0 sec
Grid point re-assignment to atoms done       ...    0.0 sec
Grid point division into batches done        ...    0.0 sec
Reduced shell lists constructed in    0.1 sec

Total number of grid points                  ...    17576
Total number of batches                      ...      288
Average number of points per batch           ...       61
Average number of grid points per atom       ...     1098
Average number of shells per batch           ...    90.70 (70.86%)
Average number of basis functions per batch  ...   239.36 (68.00%)
Average number of large shells per batch     ...    64.47 (71.08%)
Average number of large basis fcns per batch ...   166.00 (69.35%)
Maximum spatial batch extension              ...  16.71, 16.82, 18.13 au
Average spatial batch extension              ...   1.41,  1.40,  1.37 au

Time for grid setup =    0.075 sec

------------------------------
INITIAL GUESS: MODEL POTENTIAL
------------------------------
Loading Hartree-Fock densities                     ... done
Calculating cut-offs                               ... done
Setting up the integral package                    ... done
Initializing the effective Hamiltonian             ... done
Starting the Coulomb interaction                   ... done (   0.1 sec)
Reading the grid                                   ... done
Mapping shells                                     ... done
Starting the XC term evaluation                    ... done (   0.1 sec)
Transforming the Hamiltonian                       ... done (   0.0 sec)
Diagonalizing the Hamiltonian                      ... done (   0.0 sec)
Back transforming the eigenvectors                 ... done (   0.0 sec)
Now organizing SCF variables                       ... done
                      ------------------
                      INITIAL GUESS DONE (   0.4 sec)
                      ------------------
--------------
SCF ITERATIONS
--------------
ITER       Energy         Delta-E        Max-DP      RMS-DP      [F,P]     Damp
               ***  Starting incremental Fock matrix formation  ***
  0   -307.1628297108   0.000000000000 0.02814506  0.00060440  0.1646278 0.7000
  1   -307.2767889672  -0.113959256478 0.02074134  0.00048409  0.1238549 0.7000
                               ***Turning on DIIS***
  2   -307.3432089069  -0.066419939636 0.05031056  0.00102471  0.0925918 0.0000
  3   -306.6846082465   0.658600660389 0.01551117  0.00041224  0.0250368 0.0000
  4   -307.5844699535  -0.899861707066 0.00516781  0.00012433  0.0038426 0.0000
                      *** Initiating the SOSCF procedure ***
                           *** Shutting down DIIS ***
                      *** Re-Reading the Fockian *** 
                      *** Removing any level shift *** 
ITER      Energy       Delta-E        Grad      Rot      Max-DP    RMS-DP
  5   -307.50723883   0.0772311264  0.002114  0.002114  0.004500  0.000094
               *** Restarting incremental Fock matrix formation ***
  6   -307.48492394   0.0223148866  0.000521  0.000586  0.003365  0.000066
  7   -307.48493530  -0.0000113628  0.000192  0.000372  0.001761  0.000033
  8   -307.48493695  -0.0000016484  0.000055  0.000048  0.000179  0.000004
  9   -307.48493701  -0.0000000631  0.000030  0.000022  0.000042  0.000001
                  ***Gradient check signals convergence***
              ***Rediagonalizing the Fockian in SOSCF/NRSCF***

               *****************************************************
               *                     SUCCESS                       *
               *           SCF CONVERGED AFTER  10 CYCLES          *
               *****************************************************


----------------
TOTAL SCF ENERGY
----------------

Total Energy       :         -307.48493704 Eh           -8367.09051 eV

Components:
Nuclear Repulsion  :          367.64819240 Eh           10004.21592 eV
Electronic Energy  :         -675.13312943 Eh          -18371.30643 eV

One Electron Energy:        -1144.63679405 Eh          -31147.15066 eV
Two Electron Energy:          469.50366462 Eh           12775.84423 eV

Virial components:
Potential Energy   :         -614.53709753 Eh          -16722.40457 eV
Kinetic Energy     :          307.05216050 Eh            8355.31406 eV
Virial Ratio       :            2.00140946


---------------
SCF CONVERGENCE
---------------

  Last Energy change         ...   -2.2353e-08  Tolerance :   1.0000e-08
  Last MAX-Density change    ...    1.8911e-06  Tolerance :   1.0000e-07
  Last RMS-Density change    ...    7.3518e-08  Tolerance :   5.0000e-09
  Last Orbital Gradient      ...    9.8860e-07  Tolerance :   1.0000e-05
  Last Orbital Rotation      ...    1.9524e-06  Tolerance :   1.0000e-05

             **** THE GBW FILE WAS UPDATED (/home/vladimir/Quantum_Chemistry/ORCA/C8H8/cubane/optimize/CC/LPNO_CCSD/cc-pVTZ/./cubane.gbw) ****
             **** DENSITY FILE WAS UPDATED (/home/vladimir/Quantum_Chemistry/ORCA/C8H8/cubane/optimize/CC/LPNO_CCSD/cc-pVTZ/./cubane.scfp.tmp) ****
             **** ENERGY FILE WAS UPDATED (/home/vladimir/Quantum_Chemistry/ORCA/C8H8/cubane/optimize/CC/LPNO_CCSD/cc-pVTZ/./cubane.en.tmp) ****
----------------
ORBITAL ENERGIES
----------------

  NO   OCC          E(Eh)            E(eV) 
   0   2.0000     -11.221468      -305.3517 
   1   2.0000     -11.220975      -305.3382 
   2   2.0000     -11.220975      -305.3382 
   3   2.0000     -11.220975      -305.3382 
   4   2.0000     -11.220469      -305.3245 
   5   2.0000     -11.220469      -305.3245 
   6   2.0000     -11.220469      -305.3245 
   7   2.0000     -11.219945      -305.3102 
   8   2.0000      -1.242978       -33.8232 
   9   2.0000      -0.977878       -26.6094 
  10   2.0000      -0.977878       -26.6094 
  11   2.0000      -0.977878       -26.6094 
  12   2.0000      -0.767803       -20.8930 
  13   2.0000      -0.767803       -20.8930 
  14   2.0000      -0.767803       -20.8930 
  15   2.0000      -0.710252       -19.3270 
  16   2.0000      -0.641836       -17.4652 
  17   2.0000      -0.580041       -15.7837 
  18   2.0000      -0.580041       -15.7837 
  19   2.0000      -0.580041       -15.7837 
  20   2.0000      -0.578667       -15.7463 
  21   2.0000      -0.578667       -15.7463 
  22   2.0000      -0.389977       -10.6118 
  23   2.0000      -0.389977       -10.6118 
  24   2.0000      -0.389977       -10.6118 
  25   2.0000      -0.383164       -10.4264 
  26   2.0000      -0.383164       -10.4264 
  27   2.0000      -0.383164       -10.4264 
  28   0.0000       0.145455         3.9580 
  29   0.0000       0.162740         4.4284 
  30   0.0000       0.162740         4.4284 
  31   0.0000       0.162740         4.4284 
  32   0.0000       0.199706         5.4343 
  33   0.0000       0.199706         5.4343 
  34   0.0000       0.199706         5.4343 
  35   0.0000       0.219980         5.9860 
  36   0.0000       0.224462         6.1079 
  37   0.0000       0.224462         6.1079 
  38   0.0000       0.224462         6.1079 
  39   0.0000       0.348856         9.4929 
  40   0.0000       0.348856         9.4929 
  41   0.0000       0.348856         9.4929 
  42   0.0000       0.367945        10.0123 
  43   0.0000       0.367945        10.0123 
  44   0.0000       0.367945        10.0123 
  45   0.0000       0.375255        10.2112 
  46   0.0000       0.375255        10.2112 
  47   0.0000       0.380057        10.3419 
  48   0.0000       0.434011        11.8100 
  49   0.0000       0.434011        11.8100 
  50   0.0000       0.434011        11.8100 
  51   0.0000       0.483755        13.1636 
  52   0.0000       0.483755        13.1636 
  53   0.0000       0.497519        13.5382 
  54   0.0000       0.497519        13.5382 
  55   0.0000       0.497519        13.5382 
  56   0.0000       0.560120        15.2416 
  57   0.0000       0.569532        15.4978 
  58   0.0000       0.594257        16.1705 
  59   0.0000       0.594257        16.1705 
  60   0.0000       0.594257        16.1705 
  61   0.0000       0.624502        16.9936 
  62   0.0000       0.624502        16.9936 
  63   0.0000       0.624502        16.9936 
  64   0.0000       0.627553        17.0766 
  65   0.0000       0.627553        17.0766 
  66   0.0000       0.627553        17.0766 
  67   0.0000       0.645809        17.5734 
  68   0.0000       0.645809        17.5734 
  69   0.0000       0.645809        17.5734 
  70   0.0000       0.696786        18.9605 
  71   0.0000       0.696786        18.9605 
  72   0.0000       0.696787        18.9605 
  73   0.0000       0.707430        19.2501 
  74   0.0000       0.707430        19.2501 
  75   0.0000       0.731155        19.8957 
  76   0.0000       0.731155        19.8957 
  77   0.0000       0.866040        23.5661 
  78   0.0000       0.866040        23.5661 
  79   0.0000       0.866040        23.5661 
  80   0.0000       0.901693        24.5363 
  81   0.0000       0.901693        24.5363 
  82   0.0000       0.901693        24.5363 
  83   0.0000       0.910845        24.7854 
  84   0.0000       0.995610        27.0919 
  85   0.0000       1.113250        30.2931 
  86   0.0000       1.122195        30.5365 
  87   0.0000       1.122195        30.5365 
  88   0.0000       1.122195        30.5365 
  89   0.0000       1.149304        31.2741 
  90   0.0000       1.149304        31.2741 
  91   0.0000       1.149304        31.2741 
  92   0.0000       1.181576        32.1523 
  93   0.0000       1.181576        32.1523 
  94   0.0000       1.181576        32.1523 
  95   0.0000       1.197789        32.5935 
  96   0.0000       1.197789        32.5935 
  97   0.0000       1.197789        32.5935 
  98   0.0000       1.205227        32.7959 
  99   0.0000       1.205227        32.7959 
 100   0.0000       1.261650        34.3312 
 101   0.0000       1.261650        34.3312 
 102   0.0000       1.261650        34.3312 
 103   0.0000       1.308976        35.6190 
 104   0.0000       1.308976        35.6190 
 105   0.0000       1.311400        35.6850 
 106   0.0000       1.311400        35.6850 
 107   0.0000       1.311400        35.6850 
 108   0.0000       1.389601        37.8130 
 109   0.0000       1.408955        38.3396 
 110   0.0000       1.408955        38.3396 
 111   0.0000       1.433999        39.0211 
 112   0.0000       1.433999        39.0211 
 113   0.0000       1.433999        39.0211 
 114   0.0000       1.439820        39.1795 
 115   0.0000       1.439820        39.1795 
 116   0.0000       1.439820        39.1795 
 117   0.0000       1.450074        39.4585 
 118   0.0000       1.450074        39.4585 
 119   0.0000       1.450074        39.4585 
 120   0.0000       1.499508        40.8037 
 121   0.0000       1.499508        40.8037 
 122   0.0000       1.499509        40.8037 
 123   0.0000       1.528224        41.5851 
 124   0.0000       1.528224        41.5851 
 125   0.0000       1.528224        41.5851 
 126   0.0000       1.549193        42.1557 
 127   0.0000       1.608915        43.7808 
 128   0.0000       1.608915        43.7808 
 129   0.0000       1.608915        43.7808 
 130   0.0000       1.695845        46.1463 
 131   0.0000       1.695845        46.1463 
 132   0.0000       1.723362        46.8951 
 133   0.0000       1.723362        46.8951 
 134   0.0000       1.723362        46.8951 
 135   0.0000       1.792303        48.7710 
 136   0.0000       1.824225        49.6397 
 137   0.0000       1.879790        51.1517 
 138   0.0000       1.879790        51.1517 
 139   0.0000       1.879790        51.1517 
 140   0.0000       1.893930        51.5365 
 141   0.0000       1.893930        51.5365 
 142   0.0000       1.893930        51.5365 
 143   0.0000       2.000301        54.4310 
 144   0.0000       2.000301        54.4310 
 145   0.0000       2.000301        54.4310 
 146   0.0000       2.132920        58.0397 
 147   0.0000       2.132920        58.0397 
 148   0.0000       2.144743        58.3614 
 149   0.0000       2.144743        58.3614 
 150   0.0000       2.144743        58.3614 
 151   0.0000       2.232080        60.7380 
 152   0.0000       2.232080        60.7380 
 153   0.0000       2.233167        60.7676 
 154   0.0000       2.502257        68.0899 
 155   0.0000       2.502257        68.0899 
 156   0.0000       2.502258        68.0899 
 157   0.0000       2.578263        70.1581 
 158   0.0000       2.616560        71.2002 
 159   0.0000       2.631624        71.6101 
 160   0.0000       2.631624        71.6101 
 161   0.0000       2.631624        71.6101 
 162   0.0000       2.687438        73.1289 
 163   0.0000       2.687438        73.1289 
 164   0.0000       2.712728        73.8171 
 165   0.0000       2.798705        76.1566 
 166   0.0000       2.798705        76.1566 
 167   0.0000       2.798705        76.1566 
 168   0.0000       2.836776        77.1926 
 169   0.0000       2.836776        77.1926 
 170   0.0000       2.877343        78.2965 
 171   0.0000       2.877343        78.2965 
 172   0.0000       2.877343        78.2965 
 173   0.0000       2.927480        79.6608 
 174   0.0000       2.927480        79.6608 
 175   0.0000       2.927480        79.6608 
 176   0.0000       2.971959        80.8711 
 177   0.0000       2.971959        80.8711 
 178   0.0000       2.971959        80.8711 
 179   0.0000       2.988383        81.3180 
 180   0.0000       2.988383        81.3180 
 181   0.0000       2.988383        81.3180 
 182   0.0000       3.029259        82.4303 
 183   0.0000       3.029259        82.4303 
 184   0.0000       3.029259        82.4303 
 185   0.0000       3.130137        85.1754 
 186   0.0000       3.130137        85.1754 
 187   0.0000       3.130137        85.1754 
 188   0.0000       3.138642        85.4068 
 189   0.0000       3.138642        85.4068 
 190   0.0000       3.138642        85.4068 
 191   0.0000       3.285071        89.3913 
 192   0.0000       3.343683        90.9862 
 193   0.0000       3.343683        90.9862 
 194   0.0000       3.343683        90.9862 
 195   0.0000       3.393084        92.3305 
 196   0.0000       3.393084        92.3305 
 197   0.0000       3.393084        92.3305 
 198   0.0000       3.405957        92.6808 
 199   0.0000       3.420410        93.0741 
 200   0.0000       3.420410        93.0741 
 201   0.0000       3.461912        94.2034 
 202   0.0000       3.461912        94.2034 
 203   0.0000       3.464397        94.2710 
 204   0.0000       3.464397        94.2710 
 205   0.0000       3.464397        94.2710 
 206   0.0000       3.489970        94.9669 
 207   0.0000       3.489970        94.9669 
 208   0.0000       3.489970        94.9669 
 209   0.0000       3.569003        97.1175 
 210   0.0000       3.569003        97.1175 
 211   0.0000       3.569003        97.1175 
 212   0.0000       3.571722        97.1915 
 213   0.0000       3.571722        97.1915 
 214   0.0000       3.573669        97.2445 
 215   0.0000       3.573669        97.2445 
 216   0.0000       3.573669        97.2445 
 217   0.0000       3.614646        98.3595 
 218   0.0000       3.618188        98.4559 
 219   0.0000       3.618188        98.4559 
 220   0.0000       3.618188        98.4559 
 221   0.0000       3.754862       102.1750 
 222   0.0000       3.754862       102.1750 
 223   0.0000       3.800612       103.4199 
 224   0.0000       3.800612       103.4199 
 225   0.0000       3.800612       103.4199 
 226   0.0000       3.811581       103.7184 
 227   0.0000       3.811581       103.7184 
 228   0.0000       3.811581       103.7184 
 229   0.0000       3.849445       104.7487 
 230   0.0000       3.849445       104.7487 
 231   0.0000       3.849445       104.7487 
 232   0.0000       3.863745       105.1378 
 233   0.0000       3.863745       105.1378 
 234   0.0000       3.863745       105.1378 
 235   0.0000       3.903865       106.2296 
 236   0.0000       3.936865       107.1275 
 237   0.0000       3.936865       107.1275 
 238   0.0000       3.936865       107.1275 
 239   0.0000       3.962255       107.8184 
 240   0.0000       3.962255       107.8184 
 241   0.0000       3.962255       107.8184 
 242   0.0000       4.034246       109.7774 
 243   0.0000       4.034246       109.7774 
 244   0.0000       4.034246       109.7774 
 245   0.0000       4.131043       112.4114 
 246   0.0000       4.131043       112.4114 
 247   0.0000       4.131043       112.4114 
 248   0.0000       4.144366       112.7739 
 249   0.0000       4.150212       112.9330 
 250   0.0000       4.150212       112.9330 
 251   0.0000       4.150212       112.9330 
 252   0.0000       4.168999       113.4442 
 253   0.0000       4.168999       113.4442 
 254   0.0000       4.216984       114.7500 
 255   0.0000       4.216984       114.7500 
 256   0.0000       4.216984       114.7500 
 257   0.0000       4.228686       115.0684 
 258   0.0000       4.228686       115.0684 
 259   0.0000       4.228686       115.0684 
 260   0.0000       4.317823       117.4939 
 261   0.0000       4.317823       117.4939 
 262   0.0000       4.317823       117.4939 
 263   0.0000       4.354208       118.4840 
 264   0.0000       4.354208       118.4840 
 265   0.0000       4.363063       118.7250 
 266   0.0000       4.363063       118.7250 
 267   0.0000       4.384621       119.3116 
 268   0.0000       4.384621       119.3116 
 269   0.0000       4.416777       120.1866 
 270   0.0000       4.416777       120.1866 
 271   0.0000       4.416777       120.1866 
 272   0.0000       4.434292       120.6632 
 273   0.0000       4.478419       121.8640 
 274   0.0000       4.478419       121.8640 
 275   0.0000       4.478419       121.8640 
 276   0.0000       4.512721       122.7974 
 277   0.0000       4.512721       122.7974 
 278   0.0000       4.512721       122.7974 
 279   0.0000       4.534189       123.3815 
 280   0.0000       4.550315       123.8204 
 281   0.0000       4.550315       123.8204 
 282   0.0000       4.550315       123.8204 
 283   0.0000       4.622989       125.7979 
 284   0.0000       4.660272       126.8124 
 285   0.0000       4.660272       126.8124 
 286   0.0000       4.660272       126.8124 
 287   0.0000       4.698089       127.8415 
 288   0.0000       4.698089       127.8415 
 289   0.0000       4.771964       129.8517 
 290   0.0000       4.771964       129.8517 
 291   0.0000       4.771964       129.8517 
 292   0.0000       4.912699       133.6813 
 293   0.0000       4.912699       133.6813 
 294   0.0000       4.912699       133.6813 
 295   0.0000       4.921505       133.9210 
 296   0.0000       4.921505       133.9210 
 297   0.0000       4.921505       133.9210 
 298   0.0000       4.966832       135.1544 
 299   0.0000       4.966832       135.1544 
 300   0.0000       4.966832       135.1544 
 301   0.0000       5.076854       138.1482 
 302   0.0000       5.076854       138.1482 
 303   0.0000       5.112970       139.1310 
 304   0.0000       5.112970       139.1310 
 305   0.0000       5.112970       139.1310 
 306   0.0000       5.199590       141.4880 
 307   0.0000       5.199590       141.4880 
 308   0.0000       5.347006       145.4994 
 309   0.0000       5.347006       145.4994 
 310   0.0000       5.347006       145.4994 
 311   0.0000       5.355768       145.7379 
 312   0.0000       5.420320       147.4944 
 313   0.0000       5.422804       147.5620 
 314   0.0000       5.422804       147.5620 
 315   0.0000       5.422804       147.5620 
 316   0.0000       5.442261       148.0915 
 317   0.0000       5.442261       148.0915 
 318   0.0000       5.442261       148.0915 
 319   0.0000       5.453830       148.4062 
 320   0.0000       5.453830       148.4062 
 321   0.0000       5.453830       148.4062 
 322   0.0000       5.496588       149.5698 
 323   0.0000       5.496588       149.5698 
 324   0.0000       5.496588       149.5698 
 325   0.0000       5.530515       150.4930 
 326   0.0000       5.530515       150.4930 
 327   0.0000       5.643427       153.5655 
 328   0.0000       5.901053       160.5758 
 329   0.0000       5.901053       160.5758 
 330   0.0000       5.901053       160.5758 
 331   0.0000       5.955955       162.0698 
 332   0.0000       5.955955       162.0698 
 333   0.0000       5.955955       162.0698 
 334   0.0000       5.966898       162.3675 
 335   0.0000       5.966898       162.3675 
 336   0.0000       5.966898       162.3675 
 337   0.0000       6.074713       165.3013 
 338   0.0000       6.401653       174.1978 
 339   0.0000       6.401653       174.1978 
 340   0.0000       6.401653       174.1978 
 341   0.0000       6.411317       174.4608 
 342   0.0000       6.411317       174.4608 
 343   0.0000       6.955764       189.2760 
 344   0.0000      10.801956       293.9362 
 345   0.0000      11.843135       322.2681 
 346   0.0000      11.843135       322.2681 
 347   0.0000      11.843135       322.2681 
 348   0.0000      13.259765       360.8166 
 349   0.0000      13.259765       360.8166 
 350   0.0000      13.259765       360.8166 
 351   0.0000      13.449797       365.9876 

                    ********************************
                    * MULLIKEN POPULATION ANALYSIS *
                    ********************************

-----------------------
MULLIKEN ATOMIC CHARGES
-----------------------
   0 H :    0.143430
   1 H :    0.143430
   2 H :    0.143430
   3 H :    0.143430
   4 H :    0.143430
   5 H :    0.143430
   6 H :    0.143430
   7 H :    0.143430
   8 C :   -0.143430
   9 C :   -0.143430
  10 C :   -0.143430
  11 C :   -0.143430
  12 C :   -0.143430
  13 C :   -0.143430
  14 C :   -0.143430
  15 C :   -0.143430
Sum of atomic charges:   -0.0000000

--------------------------------
MULLIKEN REDUCED ORBITAL CHARGES
--------------------------------
  0 H s       :     0.829637  s :     0.829637
      pz      :     0.008302  p :     0.024905
      px      :     0.008302
      py      :     0.008302
      dz2     :     0.000546  d :     0.002027
      dxz     :     0.000312
      dyz     :     0.000312
      dx2y2   :     0.000546
      dxy     :     0.000312
  1 H s       :     0.829637  s :     0.829637
      pz      :     0.008302  p :     0.024905
      px      :     0.008302
      py      :     0.008302
      dz2     :     0.000546  d :     0.002027
      dxz     :     0.000312
      dyz     :     0.000312
      dx2y2   :     0.000546
      dxy     :     0.000312
  2 H s       :     0.829637  s :     0.829637
      pz      :     0.008302  p :     0.024905
      px      :     0.008302
      py      :     0.008302
      dz2     :     0.000546  d :     0.002027
      dxz     :     0.000312
      dyz     :     0.000312
      dx2y2   :     0.000546
      dxy     :     0.000312
  3 H s       :     0.829637  s :     0.829637
      pz      :     0.008302  p :     0.024905
      px      :     0.008302
      py      :     0.008302
      dz2     :     0.000546  d :     0.002027
      dxz     :     0.000312
      dyz     :     0.000312
      dx2y2   :     0.000546
      dxy     :     0.000312
  4 H s       :     0.829637  s :     0.829637
      pz      :     0.008302  p :     0.024905
      px      :     0.008302
      py      :     0.008302
      dz2     :     0.000546  d :     0.002027
      dxz     :     0.000312
      dyz     :     0.000312
      dx2y2   :     0.000546
      dxy     :     0.000312
  5 H s       :     0.829637  s :     0.829637
      pz      :     0.008302  p :     0.024905
      px      :     0.008302
      py      :     0.008302
      dz2     :     0.000546  d :     0.002027
      dxz     :     0.000312
      dyz     :     0.000312
      dx2y2   :     0.000546
      dxy     :     0.000312
  6 H s       :     0.829637  s :     0.829637
      pz      :     0.008302  p :     0.024905
      px      :     0.008302
      py      :     0.008302
      dz2     :     0.000546  d :     0.002027
      dxz     :     0.000312
      dyz     :     0.000312
      dx2y2   :     0.000546
      dxy     :     0.000312
  7 H s       :     0.829637  s :     0.829637
      pz      :     0.008302  p :     0.024905
      px      :     0.008302
      py      :     0.008302
      dz2     :     0.000546  d :     0.002027
      dxz     :     0.000312
      dyz     :     0.000312
      dx2y2   :     0.000546
      dxy     :     0.000312
  8 C s       :     3.256860  s :     3.256860
      pz      :     0.919018  p :     2.757054
      px      :     0.919018
      py      :     0.919018
      dz2     :     0.027854  d :     0.119905
      dxz     :     0.021399
      dyz     :     0.021399
      dx2y2   :     0.027854
      dxy     :     0.021399
      f0      :     0.002018  f :     0.009612
      f+1     :     0.001343
      f-1     :     0.001343
      f+2     :     0.000938
      f-2     :     0.000743
      f+3     :     0.001613
      f-3     :     0.001613
  9 C s       :     3.256860  s :     3.256860
      pz      :     0.919018  p :     2.757054
      px      :     0.919018
      py      :     0.919018
      dz2     :     0.027854  d :     0.119905
      dxz     :     0.021399
      dyz     :     0.021399
      dx2y2   :     0.027854
      dxy     :     0.021399
      f0      :     0.002018  f :     0.009612
      f+1     :     0.001343
      f-1     :     0.001343
      f+2     :     0.000938
      f-2     :     0.000743
      f+3     :     0.001613
      f-3     :     0.001613
 10 C s       :     3.256860  s :     3.256860
      pz      :     0.919018  p :     2.757054
      px      :     0.919018
      py      :     0.919018
      dz2     :     0.027854  d :     0.119905
      dxz     :     0.021399
      dyz     :     0.021399
      dx2y2   :     0.027854
      dxy     :     0.021399
      f0      :     0.002018  f :     0.009612
      f+1     :     0.001343
      f-1     :     0.001343
      f+2     :     0.000938
      f-2     :     0.000743
      f+3     :     0.001613
      f-3     :     0.001613
 11 C s       :     3.256860  s :     3.256860
      pz      :     0.919018  p :     2.757054
      px      :     0.919018
      py      :     0.919018
      dz2     :     0.027854  d :     0.119905
      dxz     :     0.021399
      dyz     :     0.021399
      dx2y2   :     0.027854
      dxy     :     0.021399
      f0      :     0.002018  f :     0.009612
      f+1     :     0.001343
      f-1     :     0.001343
      f+2     :     0.000938
      f-2     :     0.000743
      f+3     :     0.001613
      f-3     :     0.001613
 12 C s       :     3.256860  s :     3.256860
      pz      :     0.919018  p :     2.757054
      px      :     0.919018
      py      :     0.919018
      dz2     :     0.027854  d :     0.119905
      dxz     :     0.021399
      dyz     :     0.021399
      dx2y2   :     0.027854
      dxy     :     0.021399
      f0      :     0.002018  f :     0.009612
      f+1     :     0.001343
      f-1     :     0.001343
      f+2     :     0.000938
      f-2     :     0.000743
      f+3     :     0.001613
      f-3     :     0.001613
 13 C s       :     3.256860  s :     3.256860
      pz      :     0.919018  p :     2.757054
      px      :     0.919018
      py      :     0.919018
      dz2     :     0.027854  d :     0.119905
      dxz     :     0.021399
      dyz     :     0.021399
      dx2y2   :     0.027854
      dxy     :     0.021399
      f0      :     0.002018  f :     0.009612
      f+1     :     0.001343
      f-1     :     0.001343
      f+2     :     0.000938
      f-2     :     0.000743
      f+3     :     0.001613
      f-3     :     0.001613
 14 C s       :     3.256860  s :     3.256860
      pz      :     0.919018  p :     2.757054
      px      :     0.919018
      py      :     0.919018
      dz2     :     0.027854  d :     0.119905
      dxz     :     0.021399
      dyz     :     0.021399
      dx2y2   :     0.027854
      dxy     :     0.021399
      f0      :     0.002018  f :     0.009612
      f+1     :     0.001343
      f-1     :     0.001343
      f+2     :     0.000938
      f-2     :     0.000743
      f+3     :     0.001613
      f-3     :     0.001613
 15 C s       :     3.256860  s :     3.256860
      pz      :     0.919018  p :     2.757054
      px      :     0.919018
      py      :     0.919018
      dz2     :     0.027854  d :     0.119905
      dxz     :     0.021399
      dyz     :     0.021399
      dx2y2   :     0.027854
      dxy     :     0.021399
      f0      :     0.002018  f :     0.009612
      f+1     :     0.001343
      f-1     :     0.001343
      f+2     :     0.000938
      f-2     :     0.000743
      f+3     :     0.001613
      f-3     :     0.001613


                     *******************************
                     * LOEWDIN POPULATION ANALYSIS *
                     *******************************

----------------------
LOEWDIN ATOMIC CHARGES
----------------------
   0 H :   -0.061751
   1 H :   -0.061751
   2 H :   -0.061751
   3 H :   -0.061751
   4 H :   -0.061751
   5 H :   -0.061751
   6 H :   -0.061751
   7 H :   -0.061751
   8 C :    0.061751
   9 C :    0.061751
  10 C :    0.061751
  11 C :    0.061751
  12 C :    0.061751
  13 C :    0.061751
  14 C :    0.061751
  15 C :    0.061751

-------------------------------
LOEWDIN REDUCED ORBITAL CHARGES
-------------------------------
  0 H s       :     0.870985  s :     0.870985
      pz      :     0.054400  p :     0.163201
      px      :     0.054400
      py      :     0.054400
      dz2     :     0.006376  d :     0.027564
      dxz     :     0.004937
      dyz     :     0.004937
      dx2y2   :     0.006376
      dxy     :     0.004937
  1 H s       :     0.870985  s :     0.870985
      pz      :     0.054400  p :     0.163201
      px      :     0.054400
      py      :     0.054400
      dz2     :     0.006376  d :     0.027564
      dxz     :     0.004937
      dyz     :     0.004937
      dx2y2   :     0.006376
      dxy     :     0.004937
  2 H s       :     0.870985  s :     0.870985
      pz      :     0.054400  p :     0.163201
      px      :     0.054400
      py      :     0.054400
      dz2     :     0.006376  d :     0.027564
      dxz     :     0.004937
      dyz     :     0.004937
      dx2y2   :     0.006376
      dxy     :     0.004937
  3 H s       :     0.870985  s :     0.870985
      pz      :     0.054400  p :     0.163201
      px      :     0.054400
      py      :     0.054400
      dz2     :     0.006376  d :     0.027564
      dxz     :     0.004937
      dyz     :     0.004937
      dx2y2   :     0.006376
      dxy     :     0.004937
  4 H s       :     0.870985  s :     0.870985
      pz      :     0.054400  p :     0.163201
      px      :     0.054400
      py      :     0.054400
      dz2     :     0.006376  d :     0.027564
      dxz     :     0.004937
      dyz     :     0.004937
      dx2y2   :     0.006376
      dxy     :     0.004937
  5 H s       :     0.870985  s :     0.870985
      pz      :     0.054400  p :     0.163201
      px      :     0.054400
      py      :     0.054400
      dz2     :     0.006376  d :     0.027564
      dxz     :     0.004937
      dyz     :     0.004937
      dx2y2   :     0.006376
      dxy     :     0.004937
  6 H s       :     0.870985  s :     0.870985
      pz      :     0.054400  p :     0.163201
      px      :     0.054400
      py      :     0.054400
      dz2     :     0.006376  d :     0.027564
      dxz     :     0.004937
      dyz     :     0.004937
      dx2y2   :     0.006376
      dxy     :     0.004937
  7 H s       :     0.870985  s :     0.870985
      pz      :     0.054400  p :     0.163201
      px      :     0.054400
      py      :     0.054400
      dz2     :     0.006376  d :     0.027564
      dxz     :     0.004937
      dyz     :     0.004937
      dx2y2   :     0.006376
      dxy     :     0.004937
  8 C s       :     2.674212  s :     2.674212
      pz      :     0.910696  p :     2.732088
      px      :     0.910696
      py      :     0.910696
      dz2     :     0.095421  d :     0.475313
      dxz     :     0.094824
      dyz     :     0.094824
      dx2y2   :     0.095421
      dxy     :     0.094824
      f0      :     0.010771  f :     0.056637
      f+1     :     0.008605
      f-1     :     0.008605
      f+2     :     0.007306
      f-2     :     0.002405
      f+3     :     0.009472
      f-3     :     0.009472
  9 C s       :     2.674212  s :     2.674212
      pz      :     0.910696  p :     2.732088
      px      :     0.910696
      py      :     0.910696
      dz2     :     0.095421  d :     0.475313
      dxz     :     0.094824
      dyz     :     0.094824
      dx2y2   :     0.095421
      dxy     :     0.094824
      f0      :     0.010771  f :     0.056637
      f+1     :     0.008605
      f-1     :     0.008605
      f+2     :     0.007306
      f-2     :     0.002405
      f+3     :     0.009472
      f-3     :     0.009472
 10 C s       :     2.674212  s :     2.674212
      pz      :     0.910696  p :     2.732088
      px      :     0.910696
      py      :     0.910696
      dz2     :     0.095421  d :     0.475313
      dxz     :     0.094824
      dyz     :     0.094824
      dx2y2   :     0.095421
      dxy     :     0.094824
      f0      :     0.010771  f :     0.056637
      f+1     :     0.008605
      f-1     :     0.008605
      f+2     :     0.007306
      f-2     :     0.002405
      f+3     :     0.009472
      f-3     :     0.009472
 11 C s       :     2.674212  s :     2.674212
      pz      :     0.910696  p :     2.732088
      px      :     0.910696
      py      :     0.910696
      dz2     :     0.095421  d :     0.475313
      dxz     :     0.094824
      dyz     :     0.094824
      dx2y2   :     0.095421
      dxy     :     0.094824
      f0      :     0.010771  f :     0.056637
      f+1     :     0.008605
      f-1     :     0.008605
      f+2     :     0.007306
      f-2     :     0.002405
      f+3     :     0.009472
      f-3     :     0.009472
 12 C s       :     2.674212  s :     2.674212
      pz      :     0.910696  p :     2.732088
      px      :     0.910696
      py      :     0.910696
      dz2     :     0.095421  d :     0.475313
      dxz     :     0.094824
      dyz     :     0.094824
      dx2y2   :     0.095421
      dxy     :     0.094824
      f0      :     0.010771  f :     0.056637
      f+1     :     0.008605
      f-1     :     0.008605
      f+2     :     0.007306
      f-2     :     0.002405
      f+3     :     0.009472
      f-3     :     0.009472
 13 C s       :     2.674212  s :     2.674212
      pz      :     0.910696  p :     2.732088
      px      :     0.910696
      py      :     0.910696
      dz2     :     0.095421  d :     0.475313
      dxz     :     0.094824
      dyz     :     0.094824
      dx2y2   :     0.095421
      dxy     :     0.094824
      f0      :     0.010771  f :     0.056637
      f+1     :     0.008605
      f-1     :     0.008605
      f+2     :     0.007306
      f-2     :     0.002405
      f+3     :     0.009472
      f-3     :     0.009472
 14 C s       :     2.674212  s :     2.674212
      pz      :     0.910696  p :     2.732088
      px      :     0.910696
      py      :     0.910696
      dz2     :     0.095421  d :     0.475313
      dxz     :     0.094824
      dyz     :     0.094824
      dx2y2   :     0.095421
      dxy     :     0.094824
      f0      :     0.010771  f :     0.056637
      f+1     :     0.008605
      f-1     :     0.008605
      f+2     :     0.007306
      f-2     :     0.002405
      f+3     :     0.009472
      f-3     :     0.009472
 15 C s       :     2.674212  s :     2.674212
      pz      :     0.910696  p :     2.732088
      px      :     0.910696
      py      :     0.910696
      dz2     :     0.095421  d :     0.475313
      dxz     :     0.094824
      dyz     :     0.094824
      dx2y2   :     0.095421
      dxy     :     0.094824
      f0      :     0.010771  f :     0.056637
      f+1     :     0.008605
      f-1     :     0.008605
      f+2     :     0.007306
      f-2     :     0.002405
      f+3     :     0.009472
      f-3     :     0.009472


                      *****************************
                      * MAYER POPULATION ANALYSIS *
                      *****************************

  NA   - Mulliken gross atomic population
  ZA   - Total nuclear charge
  QA   - Mulliken gross atomic charge
  VA   - Mayer's total valence
  BVA  - Mayer's bonded valence
  FA   - Mayer's free valence

  ATOM       NA         ZA         QA         VA         BVA        FA
  0 H      0.8566     1.0000     0.1434     0.9736     0.9736    -0.0000
  1 H      0.8566     1.0000     0.1434     0.9736     0.9736     0.0000
  2 H      0.8566     1.0000     0.1434     0.9736     0.9736     0.0000
  3 H      0.8566     1.0000     0.1434     0.9736     0.9736    -0.0000
  4 H      0.8566     1.0000     0.1434     0.9736     0.9736    -0.0000
  5 H      0.8566     1.0000     0.1434     0.9736     0.9736     0.0000
  6 H      0.8566     1.0000     0.1434     0.9736     0.9736     0.0000
  7 H      0.8566     1.0000     0.1434     0.9736     0.9736    -0.0000
  8 C      6.1434     6.0000    -0.1434     3.6875     3.6875    -0.0000
  9 C      6.1434     6.0000    -0.1434     3.6875     3.6875     0.0000
 10 C      6.1434     6.0000    -0.1434     3.6875     3.6875     0.0000
 11 C      6.1434     6.0000    -0.1434     3.6875     3.6875    -0.0000
 12 C      6.1434     6.0000    -0.1434     3.6875     3.6875    -0.0000
 13 C      6.1434     6.0000    -0.1434     3.6875     3.6875     0.0000
 14 C      6.1434     6.0000    -0.1434     3.6875     3.6875     0.0000
 15 C      6.1434     6.0000    -0.1434     3.6875     3.6875    -0.0000

  Mayer bond orders larger than 0.1
B(  0-H ,  8-C ) :   0.9594 B(  1-H ,  9-C ) :   0.9594 B(  2-H , 10-C ) :   0.9594 
B(  3-H , 11-C ) :   0.9594 B(  4-H , 12-C ) :   0.9594 B(  5-H , 13-C ) :   0.9594 
B(  6-H , 14-C ) :   0.9594 B(  7-H , 15-C ) :   0.9594 B(  8-C , 13-C ) :   0.9434 
B(  8-C , 14-C ) :   0.9434 B(  8-C , 15-C ) :   0.9434 B(  9-C , 12-C ) :   0.9434 
B(  9-C , 14-C ) :   0.9434 B(  9-C , 15-C ) :   0.9434 B( 10-C , 12-C ) :   0.9434 
B( 10-C , 13-C ) :   0.9434 B( 10-C , 15-C ) :   0.9434 B( 11-C , 12-C ) :   0.9434 
B( 11-C , 13-C ) :   0.9434 B( 11-C , 14-C ) :   0.9434 

-------
TIMINGS
-------

Total SCF time: 0 days 0 hours 3 min 13 sec 

Total time                  ....     193.565 sec
Sum of individual times     ....     193.914 sec  (100.2%)

Fock matrix formation       ....     192.910 sec  ( 99.7%)
Diagonalization             ....       0.266 sec  (  0.1%)
Density matrix formation    ....       0.020 sec  (  0.0%)
Population analysis         ....       0.120 sec  (  0.1%)
Initial guess               ....       0.370 sec  (  0.2%)
Orbital Transformation      ....       0.000 sec  (  0.0%)
Orbital Orthonormalization  ....       0.000 sec  (  0.0%)
DIIS solution               ....       0.059 sec  (  0.0%)
SOSCF solution              ....       0.094 sec  (  0.0%)
           ************************************************************
           *              Shut down parallel processing               *
           ************************************************************


           ************************************************************
           *        Program running with 4 parallel MPI-processes     *
           *              working on a common directory               *
           ************************************************************
-------------------------------------------------------------------------------
                              ORCA-MATRIX DRIVEN CI
-------------------------------------------------------------------------------


Wavefunction type
-----------------
Correlation treatment                      ...      CCSD     
Single excitations                         ... ON
Orbital optimization                       ... OFF
Calculation of Z vector                    ... OFF
Calculation of Brueckner orbitals          ... OFF
Perturbative triple excitations            ... OFF
Calculation of F12 correction              ... OFF
Frozen core treatment                      ... chemical core (16 el)
Reference Wavefunction                     ... RHF
  Internal Orbitals:     8 ...   27 ( 20 MO's/ 40 electrons)
  Virtual  Orbitals:    28 ...  351 (324 MO's              )
Number of AO's                             ...    352
Number of electrons                        ...     56
Number of correlated electrons             ...     40

Algorithmic settings
--------------------
Integral transformation                    ... All integrals via the RI transformation
K(C) Formation                             ... RI-PNO
   PNO-Integral Storage                    ... ON DISK
   PNO occupation number cut-off           ... 3.330e-07
   PNO Mulliken prescreening cut-off       ... 1.000e-03
   PNO sigma option                        ...    2
   PNO construction option                 ...    2
   PNO Normalization                       ...    0
Maximum number of iterations               ...        50
Convergence tolerance (max. residuum)      ... 1.000e-05
Level shift for amplitude update           ... 2.000e-01
Maximum number of DIIS vectors             ...         7
DIIS turned on at iteration                ...         0
Damping before turning on DIIS             ...     0.500
Damping after turning on DIIS              ...     0.000
Pair specific amplitude update             ... OFF
Natural orbital iterations                 ... OFF
Perturbative natural orbital generation    ... OFF
Printlevel                                 ... 2

Memory handling:
----------------
Maximum memory for working arrays          ...    256 MB
Data storage in matrix containers          ... UNCOMPRESSED
Data type for integral storage             ... DOUBLE
In-Core Storage of quantities:
   Amplitudes+Sigma Vector      ... NO
   J+K operators                ... NO
   DIIS vectors                 ... NO
   3-external integrals         ... NO
   4-external integrals         ... NO

Localization treatment:
-----------------------
Localization option                        ...    1
Neglect threshold for strong pairs         ... 1.000e-04 Eh

Initializing the integral package          ... done
Localizing the valence orbitals
------------------------------------------------------------------------------
                           ORCA ORBITAL LOCALIZATION
------------------------------------------------------------------------------

Input orbitals are from        ... /home/vladimir/Quantum_Chemistry/ORCA/C8H8/cubane/optimize/CC/LPNO_CCSD/cc-pVTZ/./cubane.gbw
Output orbitals are to         ... /home/vladimir/Quantum_Chemistry/ORCA/C8H8/cubane/optimize/CC/LPNO_CCSD/cc-pVTZ/./cubane.loc
Max. number of iterations      ... 128
Convergence tolerance          ... 1.000e-06
Treshold for strong local MOs  ... 9.500e-01
Treshold for bond MOs          ... 8.500e-01
Operator                       ... 0
Orbital range for localization ... 8 to 27
Localization criterion         ... FOSTER-BOYS
Doing the dipole integrals     ... o.k.
Entering Jacobi type localization:
Initial value of the localization sum :     0.000000
ITERATION   0 : L=  170.3880670846 DL=  1.70e+02 (MAX-T)=  45.000 
ITERATION   1 : L=  191.0143862866 DL=  2.06e+01 (MAX-T)=  39.202 
ITERATION   2 : L=  191.0502365315 DL=  3.59e-02 (MAX-T)=   2.013 
ITERATION   3 : L=  191.0502730554 DL=  3.65e-05 (MAX-T)=   0.056 
ITERATION   4 : L=  191.0502730783 DL=  2.30e-08 (MAX-T)=   0.001 
LOCALIZATION SUM CONVERGED

----------------------------------------
LOCALIZED MOLECULAR ORBITAL COMPOSITIONS
----------------------------------------

The Mulliken populations for each LMO on each atom are computed
The LMO`s will be ordered according to atom index and type
  (A) Strongly localized MO`s have populations of >=0.950 on one atom
  (B) Two center bond orbitals have populations of >=0.850 on two atoms
  (C) Other MO`s are considered to be `delocalized`

FOUND  -   0 strongly local MO`s
       -  20 two center bond MO`s
       -   0 significantly delocalized MO`s

Bond-like localized orbitals:
MO  27:  15C  -   0.543851  and  10C  -   0.543851
MO  26:  15C  -   0.543851  and   9C  -   0.543851
MO  25:  15C  -   0.543851  and   8C  -   0.543851
MO  24:  15C  -   0.577461  and   7H  -   0.441273
MO  23:  14C  -   0.543851  and  11C  -   0.543851
MO  22:  14C  -   0.543851  and   9C  -   0.543851
MO  21:  14C  -   0.543851  and   8C  -   0.543851
MO  20:  14C  -   0.577461  and   6H  -   0.441273
MO  19:  13C  -   0.543851  and  11C  -   0.543851
MO  18:  13C  -   0.543851  and  10C  -   0.543851
MO  17:  13C  -   0.543851  and   8C  -   0.543851
MO  16:  13C  -   0.577461  and   5H  -   0.441273
MO  15:  12C  -   0.543851  and  11C  -   0.543851
MO  14:  12C  -   0.543851  and  10C  -   0.543851
MO  13:  12C  -   0.543851  and   9C  -   0.543851
MO  12:  12C  -   0.577461  and   4H  -   0.441273
MO  11:  11C  -   0.577461  and   3H  -   0.441273
MO  10:  10C  -   0.577461  and   2H  -   0.441273
MO   9:   9C  -   0.577461  and   1H  -   0.441273
MO   8:   8C  -   0.577461  and   0H  -   0.441273
Localized MO's were stored in: /home/vladimir/Quantum_Chemistry/ORCA/C8H8/cubane/optimize/CC/LPNO_CCSD/cc-pVTZ/./cubane.loc
Localizing the core orbitals
Warning: internal orbitals are localized - no re-canonicalization of internal orbitals
Time needed for Fock operator              ...           34.817 sec
Reference energy                           ...   -307.484937029

--------------------
RI-METRIC GENERATION
--------------------

Time for V**-1/2 generation:     0.477 sec

-----------------
RI-TRANSFORMATION (AUX index driven)
-----------------

Dimension of the orbital-basis         ... 352
Dimension of the aux-basis             ... 888
Transformation of internal MOs         ...    8-  27
Transformation of internal/external MOs...    8-  27 to   28- 351
Number Format for Storage              ... Double (8 Byte)
Integral mode                          ... Direct

First Phase: integral generation and transformation of MO indices
  Aux angular momentum 0               ... done (    0.092 sec)
  Aux angular momentum 1               ... done (    0.135 sec)
  Aux angular momentum 2               ... done (    0.167 sec)
  Aux angular momentum 3               ... done (    0.137 sec)
  Aux angular momentum 4               ... done (    0.047 sec)
Closing buffer VIJ ( 0.00 GB; CompressionRatio= 1.89)
Closing buffer VIA ( 0.01 GB; CompressionRatio= 1.00)
  Phase 1 completed in     0.631 sec
Second Phase: sorting and transformation of aux index

IJ-Transformation
Memory available                       ... 256 MB 
Max. # MO pairs treated in a batch     ... 5    
# of internal orbitals                 ... 20
# batches for internal orbitals        ... 1
Closing buffer IJV ( 0.00 GB; CompressionRatio= 1.00)
(ij|v) transformation done in     0.021 sec

IA-Transformation
Memory available                       ... 256 MB 
Max. # MO pairs treated in a batch     ... 5    
# of internal orbitals                 ... 20
# batches for internal orbitals        ... 1
Closing buffer IAV ( 0.01 GB; CompressionRatio= 1.00)
(ia|v) transformation done in     0.106 sec

  Phase 2 completed in     0.171 sec
RI-Integral transformation completed in     0.853 sec

--------------------------
SECOND HALF TRANSFORMATION
[...]
      pz      :     0.009309  p :     0.027926
      px      :     0.009309
      py      :     0.009309
      dz2     :     0.000714  d :     0.002783
      dxz     :     0.000452
      dyz     :     0.000452
      dx2y2   :     0.000714
      dxy     :     0.000452
  8 C s       :     3.249355  s :     3.249355
      pz      :     0.921174  p :     2.763523
      px      :     0.921175
      py      :     0.921174
      dz2     :     0.026166  d :     0.133424
      dxz     :     0.027030
      dyz     :     0.027030
      dx2y2   :     0.026166
      dxy     :     0.027030
      f0      :     0.002459  f :     0.013793
      f+1     :     0.001962
      f-1     :     0.001962
      f+2     :     0.001664
      f-2     :     0.001424
      f+3     :     0.002161
      f-3     :     0.002161
  9 C s       :     3.249355  s :     3.249355
      pz      :     0.921174  p :     2.763523
      px      :     0.921175
      py      :     0.921175
      dz2     :     0.026166  d :     0.133424
      dxz     :     0.027030
      dyz     :     0.027030
      dx2y2   :     0.026166
      dxy     :     0.027030
      f0      :     0.002459  f :     0.013793
      f+1     :     0.001962
      f-1     :     0.001962
      f+2     :     0.001664
      f-2     :     0.001424
      f+3     :     0.002161
      f-3     :     0.002161
 10 C s       :     3.249354  s :     3.249354
      pz      :     0.921175  p :     2.763523
      px      :     0.921174
      py      :     0.921174
      dz2     :     0.026166  d :     0.133424
      dxz     :     0.027030
      dyz     :     0.027030
      dx2y2   :     0.026166
      dxy     :     0.027030
      f0      :     0.002459  f :     0.013793
      f+1     :     0.001962
      f-1     :     0.001962
      f+2     :     0.001664
      f-2     :     0.001424
      f+3     :     0.002161
      f-3     :     0.002161
 11 C s       :     3.249353  s :     3.249353
      pz      :     0.921175  p :     2.763523
      px      :     0.921174
      py      :     0.921174
      dz2     :     0.026166  d :     0.133424
      dxz     :     0.027030
      dyz     :     0.027030
      dx2y2   :     0.026166
      dxy     :     0.027030
      f0      :     0.002459  f :     0.013793
      f+1     :     0.001962
      f-1     :     0.001962
      f+2     :     0.001664
      f-2     :     0.001424
      f+3     :     0.002161
      f-3     :     0.002161
 12 C s       :     3.249358  s :     3.249358
      pz      :     0.921174  p :     2.763524
      px      :     0.921175
      py      :     0.921175
      dz2     :     0.026166  d :     0.133424
      dxz     :     0.027030
      dyz     :     0.027030
      dx2y2   :     0.026166
      dxy     :     0.027030
      f0      :     0.002459  f :     0.013793
      f+1     :     0.001962
      f-1     :     0.001962
      f+2     :     0.001664
      f-2     :     0.001424
      f+3     :     0.002161
      f-3     :     0.002161
 13 C s       :     3.249358  s :     3.249358
      pz      :     0.921174  p :     2.763524
      px      :     0.921175
      py      :     0.921175
      dz2     :     0.026166  d :     0.133424
      dxz     :     0.027030
      dyz     :     0.027030
      dx2y2   :     0.026166
      dxy     :     0.027030
      f0      :     0.002459  f :     0.013793
      f+1     :     0.001962
      f-1     :     0.001962
      f+2     :     0.001664
      f-2     :     0.001424
      f+3     :     0.002161
      f-3     :     0.002161
 14 C s       :     3.249357  s :     3.249357
      pz      :     0.921175  p :     2.763524
      px      :     0.921175
      py      :     0.921174
      dz2     :     0.026166  d :     0.133424
      dxz     :     0.027030
      dyz     :     0.027030
      dx2y2   :     0.026166
      dxy     :     0.027030
      f0      :     0.002459  f :     0.013793
      f+1     :     0.001962
      f-1     :     0.001962
      f+2     :     0.001664
      f-2     :     0.001424
      f+3     :     0.002161
      f-3     :     0.002161
 15 C s       :     3.249356  s :     3.249356
      pz      :     0.921175  p :     2.763524
      px      :     0.921175
      py      :     0.921175
      dz2     :     0.026166  d :     0.133424
      dxz     :     0.027030
      dyz     :     0.027030
      dx2y2   :     0.026166
      dxy     :     0.027030
      f0      :     0.002459  f :     0.013793
      f+1     :     0.001962
      f-1     :     0.001962
      f+2     :     0.001664
      f-2     :     0.001424
      f+3     :     0.002161
      f-3     :     0.002161


                     *******************************
                     * LOEWDIN POPULATION ANALYSIS *
                     *******************************

----------------------
LOEWDIN ATOMIC CHARGES
----------------------
   0 H :   -0.058423
   1 H :   -0.058423
   2 H :   -0.058423
   3 H :   -0.058423
   4 H :   -0.058423
   5 H :   -0.058423
   6 H :   -0.058423
   7 H :   -0.058423
   8 C :    0.058423
   9 C :    0.058423
  10 C :    0.058423
  11 C :    0.058423
  12 C :    0.058423
  13 C :    0.058423
  14 C :    0.058423
  15 C :    0.058423

-------------------------------
LOEWDIN REDUCED ORBITAL CHARGES
-------------------------------
  0 H s       :     0.853939  s :     0.853939
      pz      :     0.058037  p :     0.174110
      px      :     0.058037
      py      :     0.058037
      dz2     :     0.006675  d :     0.030374
      dxz     :     0.005675
      dyz     :     0.005675
      dx2y2   :     0.006675
      dxy     :     0.005675
  1 H s       :     0.853939  s :     0.853939
      pz      :     0.058037  p :     0.174110
      px      :     0.058037
      py      :     0.058037
      dz2     :     0.006675  d :     0.030374
      dxz     :     0.005675
      dyz     :     0.005675
      dx2y2   :     0.006675
      dxy     :     0.005675
  2 H s       :     0.853939  s :     0.853939
      pz      :     0.058037  p :     0.174110
      px      :     0.058037
      py      :     0.058037
      dz2     :     0.006675  d :     0.030374
      dxz     :     0.005675
      dyz     :     0.005675
      dx2y2   :     0.006675
      dxy     :     0.005675
  3 H s       :     0.853939  s :     0.853939
      pz      :     0.058037  p :     0.174110
      px      :     0.058037
      py      :     0.058037
      dz2     :     0.006675  d :     0.030374
      dxz     :     0.005675
      dyz     :     0.005675
      dx2y2   :     0.006675
      dxy     :     0.005675
  4 H s       :     0.853939  s :     0.853939
      pz      :     0.058037  p :     0.174110
      px      :     0.058037
      py      :     0.058037
      dz2     :     0.006675  d :     0.030374
      dxz     :     0.005675
      dyz     :     0.005675
      dx2y2   :     0.006675
      dxy     :     0.005675
  5 H s       :     0.853939  s :     0.853939
      pz      :     0.058037  p :     0.174110
      px      :     0.058037
      py      :     0.058037
      dz2     :     0.006675  d :     0.030374
      dxz     :     0.005675
      dyz     :     0.005675
      dx2y2   :     0.006675
      dxy     :     0.005675
  6 H s       :     0.853939  s :     0.853939
      pz      :     0.058037  p :     0.174110
      px      :     0.058037
      py      :     0.058037
      dz2     :     0.006675  d :     0.030374
      dxz     :     0.005675
      dyz     :     0.005675
      dx2y2   :     0.006675
      dxy     :     0.005675
  7 H s       :     0.853939  s :     0.853939
      pz      :     0.058037  p :     0.174110
      px      :     0.058037
      py      :     0.058037
      dz2     :     0.006675  d :     0.030374
      dxz     :     0.005675
      dyz     :     0.005675
      dx2y2   :     0.006675
      dxy     :     0.005675
  8 C s       :     2.674496  s :     2.674496
      pz      :     0.905464  p :     2.716393
      px      :     0.905464
      py      :     0.905464
      dz2     :     0.096676  d :     0.487284
      dxz     :     0.097977
      dyz     :     0.097977
      dx2y2   :     0.096676
      dxy     :     0.097977
      f0      :     0.011980  f :     0.063404
      f+1     :     0.009531
      f-1     :     0.009531
      f+2     :     0.008062
      f-2     :     0.003280
      f+3     :     0.010511
      f-3     :     0.010511
  9 C s       :     2.674496  s :     2.674496
      pz      :     0.905464  p :     2.716393
      px      :     0.905464
      py      :     0.905464
      dz2     :     0.096676  d :     0.487284
      dxz     :     0.097977
      dyz     :     0.097977
      dx2y2   :     0.096676
      dxy     :     0.097977
      f0      :     0.011980  f :     0.063404
      f+1     :     0.009531
      f-1     :     0.009531
      f+2     :     0.008062
      f-2     :     0.003280
      f+3     :     0.010511
      f-3     :     0.010511
 10 C s       :     2.674496  s :     2.674496
      pz      :     0.905464  p :     2.716393
      px      :     0.905464
      py      :     0.905464
      dz2     :     0.096676  d :     0.487284
      dxz     :     0.097977
      dyz     :     0.097977
      dx2y2   :     0.096676
      dxy     :     0.097977
      f0      :     0.011980  f :     0.063404
      f+1     :     0.009531
      f-1     :     0.009531
      f+2     :     0.008062
      f-2     :     0.003280
      f+3     :     0.010511
      f-3     :     0.010511
 11 C s       :     2.674496  s :     2.674496
      pz      :     0.905464  p :     2.716393
      px      :     0.905464
      py      :     0.905464
      dz2     :     0.096676  d :     0.487284
      dxz     :     0.097977
      dyz     :     0.097977
      dx2y2   :     0.096676
      dxy     :     0.097977
      f0      :     0.011980  f :     0.063404
      f+1     :     0.009531
      f-1     :     0.009531
      f+2     :     0.008062
      f-2     :     0.003280
      f+3     :     0.010511
      f-3     :     0.010511
 12 C s       :     2.674496  s :     2.674496
      pz      :     0.905464  p :     2.716393
      px      :     0.905464
      py      :     0.905464
      dz2     :     0.096676  d :     0.487284
      dxz     :     0.097977
      dyz     :     0.097977
      dx2y2   :     0.096676
      dxy     :     0.097977
      f0      :     0.011980  f :     0.063404
      f+1     :     0.009531
      f-1     :     0.009531
      f+2     :     0.008062
      f-2     :     0.003280
      f+3     :     0.010511
      f-3     :     0.010511
 13 C s       :     2.674496  s :     2.674496
      pz      :     0.905464  p :     2.716393
      px      :     0.905464
      py      :     0.905464
      dz2     :     0.096676  d :     0.487284
      dxz     :     0.097977
      dyz     :     0.097977
      dx2y2   :     0.096676
      dxy     :     0.097977
      f0      :     0.011980  f :     0.063404
      f+1     :     0.009531
      f-1     :     0.009531
      f+2     :     0.008062
      f-2     :     0.003280
      f+3     :     0.010511
      f-3     :     0.010511
 14 C s       :     2.674496  s :     2.674496
      pz      :     0.905464  p :     2.716393
      px      :     0.905464
      py      :     0.905464
      dz2     :     0.096676  d :     0.487284
      dxz     :     0.097977
      dyz     :     0.097977
      dx2y2   :     0.096676
      dxy     :     0.097977
      f0      :     0.011980  f :     0.063404
      f+1     :     0.009531
      f-1     :     0.009531
      f+2     :     0.008062
      f-2     :     0.003280
      f+3     :     0.010511
      f-3     :     0.010511
 15 C s       :     2.674496  s :     2.674496
      pz      :     0.905464  p :     2.716393
      px      :     0.905464
      py      :     0.905464
      dz2     :     0.096676  d :     0.487284
      dxz     :     0.097977
      dyz     :     0.097977
      dx2y2   :     0.096676
      dxy     :     0.097977
      f0      :     0.011980  f :     0.063404
      f+1     :     0.009531
      f-1     :     0.009531
      f+2     :     0.008062
      f-2     :     0.003280
      f+3     :     0.010511
      f-3     :     0.010511


                      *****************************
                      * MAYER POPULATION ANALYSIS *
                      *****************************

  NA   - Mulliken gross atomic population
  ZA   - Total nuclear charge
  QA   - Mulliken gross atomic charge
  VA   - Mayer's total valence
  BVA  - Mayer's bonded valence
  FA   - Mayer's free valence

  ATOM       NA         ZA         QA         VA         BVA        FA
  0 H      0.8399     1.0000     0.1601     0.9765     0.9085     0.0680
  1 H      0.8399     1.0000     0.1601     0.9765     0.9085     0.0680
  2 H      0.8399     1.0000     0.1601     0.9765     0.9085     0.0680
  3 H      0.8399     1.0000     0.1601     0.9765     0.9085     0.0680
  4 H      0.8399     1.0000     0.1601     0.9765     0.9085     0.0680
  5 H      0.8399     1.0000     0.1601     0.9765     0.9085     0.0680
  6 H      0.8399     1.0000     0.1601     0.9765     0.9085     0.0680
  7 H      0.8399     1.0000     0.1601     0.9765     0.9085     0.0680
  8 C      6.1601     6.0000    -0.1601     3.8477     3.4653     0.3824
  9 C      6.1601     6.0000    -0.1601     3.8477     3.4653     0.3824
 10 C      6.1601     6.0000    -0.1601     3.8477     3.4653     0.3824
 11 C      6.1601     6.0000    -0.1601     3.8477     3.4653     0.3824
 12 C      6.1601     6.0000    -0.1601     3.8477     3.4653     0.3824
 13 C      6.1601     6.0000    -0.1601     3.8477     3.4653     0.3824
 14 C      6.1601     6.0000    -0.1601     3.8477     3.4653     0.3824
 15 C      6.1601     6.0000    -0.1601     3.8477     3.4653     0.3824

  Mayer bond orders larger than 0.1
B(  0-H ,  8-C ) :   0.8903 B(  1-H ,  9-C ) :   0.8903 B(  2-H , 10-C ) :   0.8903 
B(  3-H , 11-C ) :   0.8903 B(  4-H , 12-C ) :   0.8903 B(  5-H , 13-C ) :   0.8903 
B(  6-H , 14-C ) :   0.8903 B(  7-H , 15-C ) :   0.8903 B(  8-C , 13-C ) :   0.8779 
B(  8-C , 14-C ) :   0.8779 B(  8-C , 15-C ) :   0.8779 B(  9-C , 12-C ) :   0.8779 
B(  9-C , 14-C ) :   0.8779 B(  9-C , 15-C ) :   0.8779 B( 10-C , 12-C ) :   0.8779 
B( 10-C , 13-C ) :   0.8779 B( 10-C , 15-C ) :   0.8779 B( 11-C , 12-C ) :   0.8779 
B( 11-C , 13-C ) :   0.8779 B( 11-C , 14-C ) :   0.8779 

-------
TIMINGS
-------

Total execution time                   ...      269.015 sec

Localization of occupied MO's          ...        0.277 sec (  0.1%)
Fock Matrix Formation                  ...       34.836 sec ( 12.9%)
First Half Transformation              ...        1.236 sec (  0.5%)
Second Half Transformation             ...        5.429 sec (  2.0%)
RI-PNO integral transformation         ...       54.379 sec ( 20.2%)
Initial Guess                          ...        2.557 sec (  1.0%)
DIIS Solver                            ...        0.426 sec (  0.2%)
State Vector Update                    ...        0.011 sec (  0.0%)
Sigma-vector construction              ...      167.590 sec ( 62.3%)
  <D|H|D>(0-ext)                       ...        5.678 sec (  3.4% of sigma)
  <D|H|D>(2-ext Fock)                  ...        0.302 sec (  0.2% of sigma)
  <D|H|D>(2-ext)                       ...        7.003 sec (  4.2% of sigma)
  <D|H|D>(4-ext)                       ...       10.134 sec (  6.0% of sigma)
  CCSD doubles correction              ...        0.292 sec (  0.2% of sigma)
  <S|H|S>                              ...        0.008 sec (  0.0% of sigma)
  <S|H|D>(1-ext)                       ...        0.219 sec (  0.1% of sigma)
  <D|H|S>(1-ext)                       ...        2.997 sec (  1.8% of sigma)
  <S|H|D>(3-ext)                       ...        0.420 sec (  0.3% of sigma)
  CCSD singles correction              ...        0.243 sec (  0.1% of sigma)
  Fock-dressing                        ...        1.306 sec (  0.8% of sigma)
  Singles Fock matrix                  ...      130.774 sec ( 78.0% of sigma)
  (ik|jl)-dressing                     ...        3.090 sec (  1.8% of sigma)
  (ij|ab),(ia|jb)-dressing             ...        2.619 sec (  1.6% of sigma)
  Pair energies                        ...        0.005 sec (  0.0% of sigma)

           ************************************************************
           *              Shut down parallel processing               *
           ************************************************************

-------------------------   --------------------
FINAL SINGLE POINT ENERGY      -308.816640766885
-------------------------   --------------------

                                *** OPTIMIZATION RUN DONE ***

                            ***************************************
                            *     ORCA property calculations      *
                            ***************************************

                                    ---------------------
                                    Active property flags
                                    ---------------------
   (+) Dipole Moment


------------------------------------------------------------------------------
                       ORCA ELECTRIC PROPERTIES CALCULATION
------------------------------------------------------------------------------

Dipole Moment Calculation                       ... on
Quadrupole Moment Calculation                   ... off
Polarizability Calculation                      ... off
GBWName                                         ... /home/vladimir/Quantum_Chemistry/ORCA/C8H8/cubane/optimize/CC/LPNO_CCSD/cc-pVTZ/./cubane.gbw
Electron density file                           ... /home/vladimir/Quantum_Chemistry/ORCA/C8H8/cubane/optimize/CC/LPNO_CCSD/cc-pVTZ/./cubane.scfp.tmp

-------------
DIPOLE MOMENT
-------------
                                X             Y             Z
Electronic contribution:     -0.00000       0.00000      -0.00000
Nuclear contribution   :      0.00000      -0.00000       0.00000
                        -----------------------------------------
Total Dipole Moment    :      0.00000      -0.00000       0.00000
                        -----------------------------------------
Magnitude (a.u.)       :      0.00000
Magnitude (Debye)      :      0.00000


                           *** MDCI DENSITY ***

------------------------------------------------------------------------------
                       ORCA ELECTRIC PROPERTIES CALCULATION
------------------------------------------------------------------------------

Dipole Moment Calculation                       ... on
Quadrupole Moment Calculation                   ... off
Polarizability Calculation                      ... off
GBWName                                         ... /home/vladimir/Quantum_Chemistry/ORCA/C8H8/cubane/optimize/CC/LPNO_CCSD/cc-pVTZ/./cubane.gbw
Electron density file                           ... /home/vladimir/Quantum_Chemistry/ORCA/C8H8/cubane/optimize/CC/LPNO_CCSD/cc-pVTZ/./cubane.mdcip.tmp

-------------
DIPOLE MOMENT
-------------
                                X             Y             Z
Electronic contribution:     -0.00000       0.00000      -0.00000
Nuclear contribution   :      0.00000      -0.00000       0.00000
                        -----------------------------------------
Total Dipole Moment    :     -0.00000       0.00000      -0.00000
                        -----------------------------------------
Magnitude (a.u.)       :      0.00000
Magnitude (Debye)      :      0.00000


Timings for individual modules:

Sum of individual times         ...    32870.241 sec (= 547.837 min)
GTO integral calculation        ...        1.449 sec (=   0.024 min)   0.0 %
SCF iterations                  ...      320.841 sec (=   5.347 min)   1.0 %
MDCI module                     ...      816.710 sec (=  13.612 min)   2.5 %
SCF Gradient evaluation         ...    31730.803 sec (= 528.847 min)  96.5 %
Geometry relaxation             ...        0.438 sec (=   0.007 min)   0.0 %
                             ****ORCA TERMINATED NORMALLY****
TOTAL RUN TIME: 0 days 9 hours 2 minutes 26 seconds 165 msec
