 argument  1 = triplet.nw
                                         
                                         


              Northwest Computational Chemistry Package (NWChem) 6.8
              ------------------------------------------------------


                    Environmental Molecular Sciences Laboratory
                       Pacific Northwest National Laboratory
                                Richland, WA 99352

                              Copyright (c) 1994-2017
                       Pacific Northwest National Laboratory
                            Battelle Memorial Institute

             NWChem is an open-source computational chemistry package
                        distributed under the terms of the
                      Educational Community License (ECL) 2.0
             A copy of the license is included with this distribution
                              in the LICENSE.TXT file

                                  ACKNOWLEDGMENT
                                  --------------

            This software and its documentation were developed at the
            EMSL at Pacific Northwest National Laboratory, a multiprogram
            national laboratory, operated for the U.S. Department of Energy
            by Battelle under Contract Number DE-AC05-76RL01830. Support
            for this work was provided by the Department of Energy Office
            of Biological and Environmental Research, Office of Basic
            Energy Sciences, and the Office of Advanced Scientific Computing.


           Job information
           ---------------

    hostname        = vladimir-Kubuntu-16
    program         = nwchem
    date            = Sat Dec 21 13:13:19 2019

    compiled        = Wed_Aug_15_19:14:19_2018
    source          = /home/edo/debichem-team/nwchem/nwchem-6.8.1
    nwchem branch   = 6.8.1
    nwchem revision = v6.8-133-ge032219
    ga revision     = 5.6.5
    use scalapack   = T
    input           = triplet.nw
    prefix          = triplet.
    data base       = ./triplet.db
    status          = startup
    nproc           =        1
    time left       =     -1s



           Memory information
           ------------------

    heap     =   13107196 doubles =    100.0 Mbytes
    stack    =  131072001 doubles =   1000.0 Mbytes
    global   =  262144000 doubles =   2000.0 Mbytes (distinct from heap & stack)
    total    =  406323197 doubles =   3100.0 Mbytes
    verify   = yes
    hardfail = no 


           Directory information
           ---------------------

  0 permanent = .
  0 scratch   = .




                                NWChem Input Module
                                -------------------


            cubane T-biradical UHF/def2-TZVP DFT geometry optimization
            ----------------------------------------------------------

 Scaling coordinates for geometry "geometry" by  1.889725989
 (inverse scale =  0.529177249)

 Turning off AUTOSYM since
 SYMMETRY directive was detected!


          ------
          auto-z
          ------


                             Geometry "geometry" -> ""
                             -------------------------

 Output coordinates in angstroms (scale by  1.889725989 to convert to a.u.)

  No.       Tag          Charge          X              Y              Z
 ---- ---------------- ---------- -------------- -------------- --------------
    1 H                    1.0000     2.04891114    -1.28385753     0.01452527
    2 C                    6.0000     1.07007002    -0.81239360    -0.05733771
    3 H                    1.0000     2.04891114     1.28385753     0.01452527
    4 C                    6.0000     1.07007002     0.81239360    -0.05733771
    5 H                    1.0000     0.00000000    -1.61019161    -2.01624113
    6 C                    6.0000     0.00000000    -1.32325628    -0.97149624
    7 H                    1.0000     0.00000000     1.61019161    -2.01624113
    8 C                    6.0000     0.00000000     1.32325628    -0.97149624
    9 H                    1.0000     0.00000000    -1.43928333     1.94870807
   10 C                    6.0000     0.00000000    -0.77017176     1.09258543
   11 H                    1.0000     0.00000000     1.43928333     1.94870807
   12 C                    6.0000     0.00000000     0.77017176     1.09258543
   13 H                    1.0000    -2.04891114    -1.28385753     0.01452527
   14 C                    6.0000    -1.07007002    -0.81239360    -0.05733771
   15 H                    1.0000    -2.04891114     1.28385753     0.01452527
   16 C                    6.0000    -1.07007002     0.81239360    -0.05733771

      Atomic Mass 
      ----------- 

      H                  1.007825
      C                 12.000000


 Effective nuclear repulsion energy (a.u.)     359.0052734129

            Nuclear Dipole moment (a.u.) 
            ----------------------------
        X                 Y               Z
 ---------------- ---------------- ----------------
     0.0000000000     0.0000000000    -0.0000000000

      Symmetry information
      --------------------

 Group name             C2v       
 Group number             16
 Group order               4
 No. of unique centers     6

      Symmetry unique atoms

     1    2    5    6    9   10



                                Z-matrix (autoz)
                                -------- 

 Units are Angstrom for bonds and degrees for angles

      Type          Name      I     J     K     L     M      Value
      ----------- --------  ----- ----- ----- ----- ----- ----------
    1 Stretch                  1     2                       1.08884
    2 Stretch                  2     4                       1.62479
    3 Stretch                  2     6                       1.49724
    4 Stretch                  2    10                       1.57135
    5 Stretch                  3     4                       1.08884
    6 Stretch                  4     8                       1.49724
    7 Stretch                  4    12                       1.57135
    8 Stretch                  5     6                       1.08343
    9 Stretch                  6    14                       1.49724
   10 Stretch                  7     8                       1.08343
   11 Stretch                  8    16                       1.49724
   12 Stretch                  9    10                       1.08658
   13 Stretch                 10    12                       1.54034
   14 Stretch                 10    14                       1.57135
   15 Stretch                 11    12                       1.08658
   16 Stretch                 12    16                       1.57135
   17 Stretch                 13    14                       1.08884
   18 Stretch                 14    16                       1.62479
   19 Stretch                 15    16                       1.08884
   20 Bend                     1     2     4               115.65788
   21 Bend                     1     2     6               122.34746
   22 Bend                     1     2    10               125.13645
   23 Bend                     2     4     3               115.65788
   24 Bend                     2     4     8               109.95023
   25 Bend                     2     4    12                88.46029
   26 Bend                     2     6     5               132.77542
   27 Bend                     2     6    14                91.23672
   28 Bend                     2    10     9               124.05898
   29 Bend                     2    10    12                91.53971
   30 Bend                     2    10    14                85.84142
   31 Bend                     3     4     8               122.34746
   32 Bend                     3     4    12               125.13645
   33 Bend                     4     2     6               109.95023
   34 Bend                     4     2    10                88.46029
   35 Bend                     4     8     7               132.77542
   36 Bend                     4     8    16                91.23672
   37 Bend                     4    12    10                91.53971
   38 Bend                     4    12    11               124.05898
   39 Bend                     4    12    16                85.84142
   40 Bend                     5     6    14               132.77542
   41 Bend                     6     2    10                88.23975
   42 Bend                     6    14    10                88.23975
   43 Bend                     6    14    13               122.34746
   44 Bend                     6    14    16               109.95023
   45 Bend                     7     8    16               132.77542
   46 Bend                     8     4    12                88.23975
   47 Bend                     8    16    12                88.23975
   48 Bend                     8    16    14               109.95023
   49 Bend                     8    16    15               122.34746
   50 Bend                     9    10    12               128.00978
   51 Bend                     9    10    14               124.05898
   52 Bend                    10    12    11               128.00978
   53 Bend                    10    12    16                91.53971
   54 Bend                    10    14    13               125.13645
   55 Bend                    10    14    16                88.46029
   56 Bend                    11    12    16               124.05898
   57 Bend                    12    10    14                91.53971
   58 Bend                    12    16    14                88.46029
   59 Bend                    12    16    15               125.13645
   60 Bend                    13    14    16               115.65788
   61 Bend                    14    16    15               115.65788
   62 Torsion                  1     2     4     3           0.00000
   63 Torsion                  1     2     4     8         143.69172
   64 Torsion                  1     2     4    12        -128.74104
   65 Torsion                  1     2     6     5         -48.06687
   66 Torsion                  1     2     6    14         150.95347
   67 Torsion                  1     2    10     9         -18.90400
   68 Torsion                  1     2    10    12         120.71381
   69 Torsion                  1     2    10    14        -147.85388
   70 Torsion                  2     4     8     7         -92.75127
   71 Torsion                  2     4     8    16          68.22839
   72 Torsion                  2     4    12    10           0.00000
   73 Torsion                  2     4    12    11         139.61781
   74 Torsion                  2     4    12    16         -91.43231
   75 Torsion                  2     6    14    10         -19.49328
   76 Torsion                  2     6    14    13        -150.95347
   77 Torsion                  2     6    14    16          68.22839
   78 Torsion                  2    10    12     4           0.00000
   79 Torsion                  2    10    12    11        -137.06004
   80 Torsion                  2    10    12    16          85.87992
   81 Torsion                  2    10    14     6          18.58562
   82 Torsion                  2    10    14    13         147.85388
   83 Torsion                  2    10    14    16         -91.43231
   84 Torsion                  3     4     2     6        -143.69172
   85 Torsion                  3     4     2    10         128.74104
   86 Torsion                  3     4     8     7          48.06687
   87 Torsion                  3     4     8    16        -150.95347
   88 Torsion                  3     4    12    10        -120.71381
   89 Torsion                  3     4    12    11          18.90400
   90 Torsion                  3     4    12    16         147.85388
   91 Torsion                  4     2     6     5          92.75127
   92 Torsion                  4     2     6    14         -68.22839
   93 Torsion                  4     2    10     9        -139.61781
   94 Torsion                  4     2    10    12           0.00000
   95 Torsion                  4     2    10    14          91.43231
   96 Torsion                  4     8    16    12          19.49328
   97 Torsion                  4     8    16    14         -68.22839
   98 Torsion                  4     8    16    15         150.95347
   99 Torsion                  4    12    10     9         137.06004
  100 Torsion                  4    12    10    14         -85.87992
  101 Torsion                  4    12    16     8         -18.58562
  102 Torsion                  4    12    16    14          91.43231
  103 Torsion                  4    12    16    15        -147.85388
  104 Torsion                  5     6     2    10        -179.52706
  105 Torsion                  5     6    14    10         179.52706
  106 Torsion                  5     6    14    13          48.06687
  107 Torsion                  5     6    14    16         -92.75127
  108 Torsion                  6     2     4     8           0.00000
  109 Torsion                  6     2     4    12          87.56723
  110 Torsion                  6     2    10     9         110.36426
  111 Torsion                  6     2    10    12        -110.01793
  112 Torsion                  6     2    10    14         -18.58562
  113 Torsion                  6    14    10     9        -110.36426
  114 Torsion                  6    14    10    12         110.01793
  115 Torsion                  6    14    16     8           0.00000
  116 Torsion                  6    14    16    12         -87.56723
  117 Torsion                  6    14    16    15         143.69172
  118 Torsion                  7     8     4    12         179.52706
  119 Torsion                  7     8    16    12        -179.52706
  120 Torsion                  7     8    16    14          92.75127
  121 Torsion                  7     8    16    15         -48.06687
  122 Torsion                  8     4     2    10         -87.56723
  123 Torsion                  8     4    12    10         110.01793
  124 Torsion                  8     4    12    11        -110.36426
  125 Torsion                  8     4    12    16          18.58562
  126 Torsion                  8    16    12    10        -110.01793
  127 Torsion                  8    16    12    11         110.36426
  128 Torsion                  8    16    14    10          87.56723
  129 Torsion                  8    16    14    13        -143.69172
  130 Torsion                  9    10    12    11           0.00000
  131 Torsion                  9    10    12    16        -137.06004
  132 Torsion                  9    10    14    13          18.90400
  133 Torsion                  9    10    14    16         139.61781
  134 Torsion                 10     2     4    12           0.00000
  135 Torsion                 10     2     6    14          19.49328
  136 Torsion                 10    12    16    14           0.00000
  137 Torsion                 10    12    16    15         120.71381
  138 Torsion                 10    14    16    12           0.00000
  139 Torsion                 10    14    16    15        -128.74104
  140 Torsion                 11    12    10    14         137.06004
  141 Torsion                 11    12    16    14        -139.61781
  142 Torsion                 11    12    16    15         -18.90400
  143 Torsion                 12     4     8    16         -19.49328
  144 Torsion                 12    10    14    13        -120.71381
  145 Torsion                 12    10    14    16          -0.00000
  146 Torsion                 12    16    14    13         128.74104
  147 Torsion                 13    14    16    15           0.00000
  148 Torsion                 14    10    12    16           0.00000


            XYZ format geometry
            -------------------
    16
 geometry
 H                     2.04891114    -1.28385753     0.01452527
 C                     1.07007002    -0.81239360    -0.05733771
 H                     2.04891114     1.28385753     0.01452527
 C                     1.07007002     0.81239360    -0.05733771
 H                     0.00000000    -1.61019161    -2.01624113
 C                     0.00000000    -1.32325628    -0.97149624
 H                     0.00000000     1.61019161    -2.01624113
 C                     0.00000000     1.32325628    -0.97149624
 H                     0.00000000    -1.43928333     1.94870807
 C                     0.00000000    -0.77017176     1.09258543
 H                     0.00000000     1.43928333     1.94870807
 C                     0.00000000     0.77017176     1.09258543
 H                    -2.04891114    -1.28385753     0.01452527
 C                    -1.07007002    -0.81239360    -0.05733771
 H                    -2.04891114     1.28385753     0.01452527
 C                    -1.07007002     0.81239360    -0.05733771

 ==============================================================================
                                internuclear distances
 ------------------------------------------------------------------------------
       center one      |      center two      | atomic units |  angstroms
 ------------------------------------------------------------------------------
    2 C                |   1 H                |     2.05761  |     1.08884
    4 C                |   2 C                |     3.07040  |     1.62479
    4 C                |   3 H                |     2.05761  |     1.08884
    6 C                |   2 C                |     2.82937  |     1.49724
    6 C                |   5 H                |     2.04739  |     1.08343
    8 C                |   4 C                |     2.82937  |     1.49724
    8 C                |   7 H                |     2.04739  |     1.08343
   10 C                |   2 C                |     2.96943  |     1.57135
   10 C                |   9 H                |     2.05334  |     1.08658
   12 C                |   4 C                |     2.96943  |     1.57135
   12 C                |  10 C                |     2.91083  |     1.54034
   12 C                |  11 H                |     2.05334  |     1.08658
   14 C                |   6 C                |     2.82937  |     1.49724
   14 C                |  10 C                |     2.96943  |     1.57135
   14 C                |  13 H                |     2.05761  |     1.08884
   16 C                |   8 C                |     2.82937  |     1.49724
   16 C                |  12 C                |     2.96943  |     1.57135
   16 C                |  14 C                |     3.07040  |     1.62479
   16 C                |  15 H                |     2.05761  |     1.08884
 ------------------------------------------------------------------------------
                         number of included internuclear distances:         19
 ==============================================================================



 ==============================================================================
                                 internuclear angles
 ------------------------------------------------------------------------------
        center 1       |       center 2       |       center 3       |  degrees
 ------------------------------------------------------------------------------
    1 H                |   2 C                |   4 C                |   115.66
    1 H                |   2 C                |   6 C                |   122.35
    1 H                |   2 C                |  10 C                |   125.14
    4 C                |   2 C                |   6 C                |   109.95
    4 C                |   2 C                |  10 C                |    88.46
    6 C                |   2 C                |  10 C                |    88.24
    2 C                |   4 C                |   3 H                |   115.66
    2 C                |   4 C                |   8 C                |   109.95
    2 C                |   4 C                |  12 C                |    88.46
    3 H                |   4 C                |   8 C                |   122.35
    3 H                |   4 C                |  12 C                |   125.14
    8 C                |   4 C                |  12 C                |    88.24
    2 C                |   6 C                |   5 H                |   132.78
    2 C                |   6 C                |  14 C                |    91.24
    5 H                |   6 C                |  14 C                |   132.78
    4 C                |   8 C                |   7 H                |   132.78
    4 C                |   8 C                |  16 C                |    91.24
    7 H                |   8 C                |  16 C                |   132.78
    2 C                |  10 C                |   9 H                |   124.06
    2 C                |  10 C                |  12 C                |    91.54
    2 C                |  10 C                |  14 C                |    85.84
    9 H                |  10 C                |  12 C                |   128.01
    9 H                |  10 C                |  14 C                |   124.06
   12 C                |  10 C                |  14 C                |    91.54
    4 C                |  12 C                |  10 C                |    91.54
    4 C                |  12 C                |  11 H                |   124.06
    4 C                |  12 C                |  16 C                |    85.84
   10 C                |  12 C                |  11 H                |   128.01
   10 C                |  12 C                |  16 C                |    91.54
   11 H                |  12 C                |  16 C                |   124.06
    6 C                |  14 C                |  10 C                |    88.24
    6 C                |  14 C                |  13 H                |   122.35
    6 C                |  14 C                |  16 C                |   109.95
   10 C                |  14 C                |  13 H                |   125.14
   10 C                |  14 C                |  16 C                |    88.46
   13 H                |  14 C                |  16 C                |   115.66
    8 C                |  16 C                |  12 C                |    88.24
    8 C                |  16 C                |  14 C                |   109.95
    8 C                |  16 C                |  15 H                |   122.35
   12 C                |  16 C                |  14 C                |    88.46
   12 C                |  16 C                |  15 H                |   125.14
   14 C                |  16 C                |  15 H                |   115.66
 ------------------------------------------------------------------------------
                            number of included internuclear angles:         42
 ==============================================================================



  library name resolved from: environment
  library file name is: </home/vladimir/bin/nwchem-6.8/src/basis/libraries/>
  
                      Basis "ao basis" -> "" (cartesian)
                      -----
  H (Hydrogen)
  ------------
            Exponent  Coefficients 
       -------------- ---------------------------------------------------------
  1 S  3.40613410E+01  0.006025
  1 S  5.12357460E+00  0.045021
  1 S  1.16466260E+00  0.201897

  2 S  3.27230410E-01  1.000000

  3 S  1.03072410E-01  1.000000

  4 P  8.00000000E-01  1.000000

  C (Carbon)
  ----------
            Exponent  Coefficients 
       -------------- ---------------------------------------------------------
  1 S  1.35753497E+04  0.000222
  1 S  2.03523337E+03  0.001723
  1 S  4.63225624E+02  0.008926
  1 S  1.31200196E+02  0.035728
  1 S  4.28530159E+01  0.110763
  1 S  1.55841858E+01  0.242956

  2 S  6.20671385E+00  0.414403
  2 S  2.57648965E+00  0.237450

  3 S  5.76963394E-01  1.000000

  4 S  2.29728314E-01  1.000000

  5 S  9.51644400E-02  1.000000

  6 P  3.46972322E+01  0.005333
  6 P  7.95826228E+00  0.035864
  6 P  2.37808269E+00  0.142159
  6 P  8.14332082E-01  0.342705

  7 P  2.88875473E-01  1.000000

  8 P  1.00568237E-01  1.000000

  9 D  1.09700000E+00  1.000000

 10 D  3.18000000E-01  1.000000

 11 F  7.61000000E-01  1.000000



 Summary of "ao basis" -> "" (cartesian)
 ------------------------------------------------------------------------------
       Tag                 Description            Shells   Functions and Types
 ---------------- ------------------------------  ------  ---------------------
 H                         def2-TZVP                 4        6   3s1p
 C                         def2-TZVP                11       36   5s3p2d1f




                           NWChem Geometry Optimization
                           ----------------------------




            cubane T-biradical UHF/def2-TZVP DFT geometry optimization


 maximum gradient threshold         (gmax) =   0.000450
 rms gradient threshold             (grms) =   0.000300
 maximum cartesian step threshold   (xmax) =   0.001800
 rms cartesian step threshold       (xrms) =   0.001200
 fixed trust radius                (trust) =   0.300000
 maximum step size to saddle      (sadstp) =   0.100000
 energy precision                  (eprec) =   5.0D-06
 maximum number of steps          (nptopt) =   20
 initial hessian option           (inhess) =    0
 line search option               (linopt) =    1
 hessian update option            (modupd) =    1
 saddle point option              (modsad) =    0
 initial eigen-mode to follow     (moddir) =    0
 initial variable to follow       (vardir) =    0
 follow first negative mode     (firstneg) =    T
 apply conjugacy                    (opcg) =    F
 source of zmatrix                         =   autoz   


          -------------------
          Energy Minimization
          -------------------


 Names of Z-matrix variables 
    1              2              3              4              5         
    6              7              8              9             10         
   11             12             13             14             15         
   16             17             18             19             20         
   21             22             23             24             25         
   26             27             28             29             30         
   31             32             33             34             35         
   36             37             38             39             40         
   41             42             43             44             45         
   46             47             48             49             50         
   51             52             53             54             55         
   56             57             58             59             60         
   61             62             63             64             65         
   66             67             68             69             70         
   71             72             73             74             75         
   76             77             78             79             80         
   81             82             83             84             85         
   86             87             88             89             90         
   91             92             93             94             95         
   96             97             98             99            100         
  101            102            103            104            105         
  106            107            108            109            110         
  111            112            113            114            115         
  116            117            118            119            120         
  121            122            123            124            125         
  126            127            128            129            130         
  131            132            133            134            135         
  136            137            138            139            140         
  141            142            143            144            145         
  146            147            148         

 Variables with the same non-blank name are constrained to be equal


 Using diagonal initial Hessian 
 Scaling for Hessian diagonals: bonds = 1.00  angles = 0.25  torsions = 0.10

          --------
          Step   0
          --------


                         Geometry "geometry" -> "geometry"
                         ---------------------------------

 Output coordinates in angstroms (scale by  1.889725989 to convert to a.u.)

  No.       Tag          Charge          X              Y              Z
 ---- ---------------- ---------- -------------- -------------- --------------
    1 H                    1.0000     2.04891114    -1.28385753     0.01452527
    2 C                    6.0000     1.07007002    -0.81239360    -0.05733771
    3 H                    1.0000     2.04891114     1.28385753     0.01452527
    4 C                    6.0000     1.07007002     0.81239360    -0.05733771
    5 H                    1.0000     0.00000000    -1.61019161    -2.01624113
    6 C                    6.0000     0.00000000    -1.32325628    -0.97149624
    7 H                    1.0000     0.00000000     1.61019161    -2.01624113
    8 C                    6.0000     0.00000000     1.32325628    -0.97149624
    9 H                    1.0000     0.00000000    -1.43928333     1.94870807
   10 C                    6.0000     0.00000000    -0.77017176     1.09258543
   11 H                    1.0000     0.00000000     1.43928333     1.94870807
   12 C                    6.0000     0.00000000     0.77017176     1.09258543
   13 H                    1.0000    -2.04891114    -1.28385753     0.01452527
   14 C                    6.0000    -1.07007002    -0.81239360    -0.05733771
   15 H                    1.0000    -2.04891114     1.28385753     0.01452527
   16 C                    6.0000    -1.07007002     0.81239360    -0.05733771

      Atomic Mass 
      ----------- 

      H                  1.007825
      C                 12.000000


 Effective nuclear repulsion energy (a.u.)     359.0052734129

            Nuclear Dipole moment (a.u.) 
            ----------------------------
        X                 Y               Z
 ---------------- ---------------- ----------------
     0.0000000000     0.0000000000    -0.0000000000

      Symmetry information
      --------------------

 Group name             C2v       
 Group number             16
 Group order               4
 No. of unique centers     6

      Symmetry unique atoms

     1    2    5    6    9   10


                                 NWChem DFT Module
                                 -----------------


            cubane T-biradical UHF/def2-TZVP DFT geometry optimization




 Summary of "ao basis" -> "ao basis" (cartesian)
 ------------------------------------------------------------------------------
       Tag                 Description            Shells   Functions and Types
 ---------------- ------------------------------  ------  ---------------------
 H                         def2-TZVP                 4        6   3s1p
 C                         def2-TZVP                11       36   5s3p2d1f


      Symmetry analysis of basis
      --------------------------

        a1        102
        a2         66
        b1         66
        b2        102

  Caching 1-el integrals 

            General Information
            -------------------
          SCF calculation type: DFT
          Wavefunction type:  spin polarized.
          No. of atoms     :    16
          No. of electrons :    56
           Alpha electrons :    29
            Beta electrons :    27
          Charge           :     0
          Spin multiplicity:     3
          Use of symmetry is: on ; symmetry adaption is: on 
          Maximum number of iterations:  30
          AO basis - number of functions:   336
                     number of shells:   120
          Convergence on energy requested:  1.00D-06
          Convergence on density requested:  1.00D-05
          Convergence on gradient requested:  5.00D-04

              XC Information
              --------------
                         B3LYP Method XC Potential
                     Hartree-Fock (Exact) Exchange  0.200          
                        Slater Exchange Functional  0.800 local    
                    Becke 1988 Exchange Functional  0.720 non-local
              Lee-Yang-Parr Correlation Functional  0.810          
                  VWN I RPA Correlation Functional  0.190 local    

             Grid Information
             ----------------
          Grid used for XC integration:  medium    
          Radial quadrature: Mura-Knowles        
          Angular quadrature: Lebedev. 
          Tag              B.-S. Rad. Rad. Pts. Rad. Cut. Ang. Pts.
          ---              ---------- --------- --------- ---------
          H                   0.35       45          12.0       434
          C                   0.70       49          11.0       434
          Grid pruning is: on 
          Number of quadrature shells:   282
          Spatial weights used:  Erf1

          Convergence Information
          -----------------------
          Convergence aids based upon iterative change in 
          total energy or number of iterations. 
          Levelshifting, if invoked, occurs when the 
          HOMO/LUMO gap drops below (HL_TOL):  1.00D-02
          DIIS, if invoked, will attempt to extrapolate 
          using up to (NFOCK): 10 stored Fock matrices.

                    Damping( 0%)  Levelshifting(0.5)       DIIS
                  --------------- ------------------- ---------------
          dE  on:    start            ASAP                start   
          dE off:    2 iters         30 iters            30 iters 


      Screening Tolerance Information
      -------------------------------
          Density screening/tol_rho:  1.00D-10
          AO Gaussian exp screening on grid/accAOfunc:  14
          CD Gaussian exp screening on grid/accCDfunc:  20
          XC Gaussian exp screening on grid/accXCfunc:  20
          Schwarz screening/accCoul:  1.00D-08


 WARNING : Found     1 linear dependencies 
 S eigenvalue threshold:     1.00000E-05
 Smallest S eigenvalue :     3.53573E-06
 Largest  S eigenvalue :     3.53573E-06


 !! The overlap matrix has   1 vectors deemed linearly dependent with
    eigenvalues:
 3.54D-06


      Superposition of Atomic Density Guess
      -------------------------------------

 Sum of atomic energies:        -305.36909921

      Non-variational initial energy
      ------------------------------

 Total energy =    -311.502787
 1-e energy   =   -1120.863303
 2-e energy   =     450.355242
 HOMO         =      -0.177308
 LUMO         =      -0.118570


   Symmetry analysis of molecular orbitals - initial alpha
   -------------------------------------------------------

  Numbering of irreducible representations: 

     1 a1          2 a2          3 b1          4 b2      

  Orbital symmetries:

     1 a1          2 b2          3 b1          4 a1          5 b2      
     6 a2          7 a1          8 b2          9 a1         10 b2      
    11 b1         12 a1         13 b2         14 a2         15 a1      
    16 a1         17 b2         18 a1         19 b2         20 b1      
    21 a1         22 b1         23 b1         24 a2         25 a1      
    26 b2         27 a2         28 b2         29 a1         30 a1      
    31 b1         32 a1         33 b2         34 a2         35 a1      
    36 b2         37 b1         38 a1         39 b2      


   Symmetry analysis of molecular orbitals - initial beta
   ------------------------------------------------------

  Numbering of irreducible representations: 

     1 a1          2 a2          3 b1          4 b2      

  Orbital symmetries:

     1 a1          2 b2          3 b1          4 a1          5 b2      
     6 a2          7 a1          8 b2          9 a1         10 b2      
    11 b1         12 a1         13 b2         14 a2         15 a1      
    16 a1         17 b2         18 a1         19 b2         20 b1      
    21 a1         22 b1         23 b1         24 a2         25 a1      
    26 b2         27 a2         28 b2         29 a1         30 a1      
    31 b1         32 a1         33 b2         34 a2         35 a1      
    36 b2         37 b1         38 a1         39 b2      

   Time after variat. SCF:     13.5
   Time prior to 1st pass:     13.5

 Integral file          = ./triplet.aoints.0
 Record size in doubles =  65536        No. of integs per rec  =  32766
 Max. records in memory =      0        Max. records in file   = 128844
 No. of bits per label  =     16        No. of bits per value  =     64


 #quartets = 6.492D+06 #integrals = 3.847D+08 #direct =  0.0% #cached =100.0%


 Grid_pts file          = ./triplet.gridpts.0
 Record size in doubles =  12289        No. of grid_pts per rec  =   3070
 Max. records in memory =     45        Max. recs in file   =    627628

 Grid integrated density:      55.993726825396
 Requested integration accuracy:   0.10E-05

           Memory utilization after 1st SCF pass: 
           Heap Space remaining (MW):       12.53            12532380
          Stack Space remaining (MW):      131.07           131068620

   convergence    iter        energy       DeltaE   RMS-Dens  Diis-err    time
 ---------------- ----- ----------------- --------- --------- ---------  ------
 d= 0,ls=0.0,diis     1   -309.4030200506 -6.68D+02  1.94D-03  3.69D-01    48.8
                                                     1.50D-03  3.51D-01
 d= 0,ls=0.0,diis     2   -309.5022515915 -9.92D-02  8.50D-04  9.14D-03    58.9
                                                     3.57D-04  9.33D-03
 d= 0,ls=0.0,diis     3   -309.5034766295 -1.23D-03  2.66D-04  7.72D-03    69.1
                                                     1.77D-04  6.88D-03
 d= 0,ls=0.0,diis     4   -309.5064558017 -2.98D-03  1.77D-04  8.64D-04    79.5
                                                     6.72D-05  9.29D-04
 d= 0,ls=0.0,diis     5   -309.5069136881 -4.58D-04  3.21D-05  1.85D-05    90.2
                                                     1.44D-05  1.49D-05
  Resetting Diis
 d= 0,ls=0.0,diis     6   -309.5069273236 -1.36D-05  1.91D-05  2.29D-06   100.7
                                                     5.83D-06  4.51D-06
 d= 0,ls=0.0,diis     7   -309.5069290193 -1.70D-06  6.39D-06  1.83D-06   111.1
                                                     3.99D-06  1.01D-06
 d= 0,ls=0.0,diis     8   -309.5069284625  5.57D-07  4.21D-06  2.74D-06   121.5
                                                     2.76D-06  3.08D-06


         Total DFT energy =     -309.506928462544
      One electron energy =    -1127.858274939983
           Coulomb energy =      505.771329610205
    Exchange-Corr. energy =      -46.425256545650
 Nuclear repulsion energy =      359.005273412884

 Numeric. integr. density =       56.000048280235

     Total iterative time =    108.1s



                  Occupations of the irreducible representations
                  ----------------------------------------------

                     irrep           alpha         beta
                     --------     --------     --------
                     a1               11.0         10.0
                     a2                4.0          4.0
                     b1                5.0          5.0
                     b2                9.0          8.0


                    DFT Final Alpha Molecular Orbital Analysis
                    ------------------------------------------

 Vector    1  Occ=1.000000D+00  E=-1.018554D+01  Symmetry=a1
              MO Center=  0.0D+00, -2.1D-16, -6.3D-02, r^2= 1.8D+00
   Bfn.  Coefficient  Atom+Function         Bfn.  Coefficient  Atom+Function  
  ----- ------------  ---------------      ----- ------------  ---------------
     8      0.299642   2 C  s                50      0.299642   4 C  s         
   260      0.299642  14 C  s               302      0.299642  16 C  s         
     7      0.233050   2 C  s                49      0.233050   4 C  s         
   259      0.233050  14 C  s               301      0.233050  16 C  s         
     9      0.045672   2 C  s                51      0.045672   4 C  s         

 Vector    2  Occ=1.000000D+00  E=-1.018552D+01  Symmetry=b1
              MO Center= -4.4D-16, -2.2D-16, -5.7D-02, r^2= 1.8D+00
   Bfn.  Coefficient  Atom+Function         Bfn.  Coefficient  Atom+Function  
  ----- ------------  ---------------      ----- ------------  ---------------
     8      0.300708   2 C  s                50      0.300708   4 C  s         
   260     -0.300708  14 C  s               302     -0.300708  16 C  s         
     7      0.233884   2 C  s                49      0.233884   4 C  s         
   259     -0.233884  14 C  s               301     -0.233884  16 C  s         
     9      0.045880   2 C  s                51      0.045880   4 C  s         

 Vector    3  Occ=1.000000D+00  E=-1.018541D+01  Symmetry=b2
              MO Center=  4.4D-16,  2.0D-16, -6.4D-02, r^2= 1.8D+00
   Bfn.  Coefficient  Atom+Function         Bfn.  Coefficient  Atom+Function  
  ----- ------------  ---------------      ----- ------------  ---------------
     8      0.299476   2 C  s                50     -0.299476   4 C  s         
   260      0.299476  14 C  s               302     -0.299476  16 C  s         
     7      0.232915   2 C  s                49     -0.232915   4 C  s         
   259      0.232915  14 C  s               301     -0.232915  16 C  s         
     9      0.043907   2 C  s                51     -0.043907   4 C  s         

 Vector    4  Occ=1.000000D+00  E=-1.018539D+01  Symmetry=a2
              MO Center=  1.6D-13,  6.2D-17, -5.7D-02, r^2= 1.8D+00
   Bfn.  Coefficient  Atom+Function         Bfn.  Coefficient  Atom+Function  
  ----- ------------  ---------------      ----- ------------  ---------------
     8      0.300736   2 C  s                50     -0.300736   4 C  s         
   260     -0.300736  14 C  s               302      0.300736  16 C  s         
     7      0.233894   2 C  s                49     -0.233894   4 C  s         
   259     -0.233894  14 C  s               301      0.233894  16 C  s         
     9      0.044359   2 C  s                51     -0.044359   4 C  s         

 Vector    5  Occ=1.000000D+00  E=-1.018313D+01  Symmetry=b2
              MO Center= -1.2D-13,  2.6D-17, -9.6D-01, r^2= 1.8D+00
   Bfn.  Coefficient  Atom+Function         Bfn.  Coefficient  Atom+Function  
  ----- ------------  ---------------      ----- ------------  ---------------
    92      0.423351   6 C  s               134     -0.423351   8 C  s         
    91      0.329307   6 C  s               133     -0.329307   8 C  s         
    93      0.067469   6 C  s               135     -0.067469   8 C  s         
    94     -0.066790   6 C  s               136      0.066790   8 C  s         
     8     -0.026672   2 C  s                50      0.026672   4 C  s         

 Vector    6  Occ=1.000000D+00  E=-1.018313D+01  Symmetry=a1
              MO Center= -8.7D-19, -1.0D-16, -9.7D-01, r^2= 1.8D+00
   Bfn.  Coefficient  Atom+Function         Bfn.  Coefficient  Atom+Function  
  ----- ------------  ---------------      ----- ------------  ---------------
    92      0.423643   6 C  s               134      0.423643   8 C  s         
    91      0.329510   6 C  s               133      0.329510   8 C  s         
    93      0.069260   6 C  s                94     -0.068919   6 C  s         
   135      0.069260   8 C  s               136     -0.068919   8 C  s         

 Vector    7  Occ=1.000000D+00  E=-1.017989D+01  Symmetry=a1
              MO Center=  5.4D-20, -4.2D-17,  1.1D+00, r^2= 6.2D-01
   Bfn.  Coefficient  Atom+Function         Bfn.  Coefficient  Atom+Function  
  ----- ------------  ---------------      ----- ------------  ---------------
   176      0.425142  10 C  s               218      0.425142  12 C  s         
   175      0.330665  10 C  s               217      0.330665  12 C  s         
   177      0.064593  10 C  s               219      0.064593  12 C  s         
   178     -0.062287  10 C  s               220     -0.062287  12 C  s         

 Vector    8  Occ=1.000000D+00  E=-1.017968D+01  Symmetry=b2
              MO Center= -3.8D-14, -1.2D-17,  1.1D+00, r^2= 6.2D-01
   Bfn.  Coefficient  Atom+Function         Bfn.  Coefficient  Atom+Function  
  ----- ------------  ---------------      ----- ------------  ---------------
   176      0.425182  10 C  s               218     -0.425182  12 C  s         
   175      0.330689  10 C  s               217     -0.330689  12 C  s         
   177      0.062754  10 C  s               219     -0.062754  12 C  s         
   178     -0.059050  10 C  s               220      0.059050  12 C  s         

 Vector    9  Occ=1.000000D+00  E=-9.319907D-01  Symmetry=a1
              MO Center= -5.6D-17,  1.3D-16,  1.4D-01, r^2= 1.7D+00
   Bfn.  Coefficient  Atom+Function         Bfn.  Coefficient  Atom+Function  
  ----- ------------  ---------------      ----- ------------  ---------------
   178      0.129713  10 C  s               220      0.129713  12 C  s         
    10      0.125313   2 C  s                52      0.125313   4 C  s         
   262      0.125313  14 C  s               304      0.125313  16 C  s         
   177      0.119288  10 C  s               219      0.119288  12 C  s         
     9      0.105373   2 C  s                51      0.105373   4 C  s         

 Vector   10  Occ=1.000000D+00  E=-7.881364D-01  Symmetry=b2
              MO Center=  1.1D-16,  2.2D-16, -1.9D-01, r^2= 2.5D+00
   Bfn.  Coefficient  Atom+Function         Bfn.  Coefficient  Atom+Function  
  ----- ------------  ---------------      ----- ------------  ---------------
    93      0.162261   6 C  s               135     -0.162261   8 C  s         
    94      0.142002   6 C  s               136     -0.142002   8 C  s         
    10      0.121233   2 C  s                52     -0.121233   4 C  s         
   262      0.121233  14 C  s               304     -0.121233  16 C  s         
     9      0.110646   2 C  s                51     -0.110646   4 C  s         

 Vector   11  Occ=1.000000D+00  E=-7.162051D-01  Symmetry=b1
              MO Center=  4.4D-14, -1.3D-14,  1.2D-02, r^2= 2.8D+00
   Bfn.  Coefficient  Atom+Function         Bfn.  Coefficient  Atom+Function  
  ----- ------------  ---------------      ----- ------------  ---------------
    10      0.196691   2 C  s                52      0.196691   4 C  s         
   262     -0.196691  14 C  s               304     -0.196691  16 C  s         
     9      0.158581   2 C  s                51      0.158581   4 C  s         
   261     -0.158581  14 C  s               303     -0.158581  16 C  s         
     8     -0.104915   2 C  s                50     -0.104915   4 C  s         

 Vector   12  Occ=1.000000D+00  E=-6.998555D-01  Symmetry=a1
              MO Center= -1.4D-14, -2.1D-15,  4.9D-02, r^2= 3.0D+00
   Bfn.  Coefficient  Atom+Function         Bfn.  Coefficient  Atom+Function  
  ----- ------------  ---------------      ----- ------------  ---------------
   178      0.194921  10 C  s               220      0.194921  12 C  s         
    93     -0.165308   6 C  s               135     -0.165308   8 C  s         
   177      0.162934  10 C  s               219      0.162934  12 C  s         
    94     -0.159810   6 C  s               136     -0.159810   8 C  s         
   176     -0.103072  10 C  s               218     -0.103072  12 C  s         

 Vector   13  Occ=1.000000D+00  E=-5.880442D-01  Symmetry=b2
              MO Center= -3.5D-17,  1.8D-15, -4.3D-02, r^2= 4.2D+00
   Bfn.  Coefficient  Atom+Function         Bfn.  Coefficient  Atom+Function  
  ----- ------------  ---------------      ----- ------------  ---------------
   178      0.213537  10 C  s               220     -0.213537  12 C  s         
    93     -0.170485   6 C  s               135      0.170485   8 C  s         
    94     -0.162831   6 C  s               136      0.162831   8 C  s         
   177      0.152348  10 C  s               219     -0.152348  12 C  s         
   176     -0.096663  10 C  s               218      0.096663  12 C  s         

 Vector   14  Occ=1.000000D+00  E=-5.811734D-01  Symmetry=a2
              MO Center=  3.9D-15,  1.5D-14, -1.1D-01, r^2= 3.9D+00
   Bfn.  Coefficient  Atom+Function         Bfn.  Coefficient  Atom+Function  
  ----- ------------  ---------------      ----- ------------  ---------------
    10      0.198607   2 C  s                52     -0.198607   4 C  s         
   262     -0.198607  14 C  s               304      0.198607  16 C  s         
     9      0.154433   2 C  s                51     -0.154433   4 C  s         
   261     -0.154433  14 C  s               303      0.154433  16 C  s         
    96      0.102340   6 C  px              138     -0.102340   8 C  px        

 Vector   15  Occ=1.000000D+00  E=-5.618641D-01  Symmetry=a1
              MO Center= -8.7D-15, -8.9D-15, -5.7D-02, r^2= 4.2D+00
   Bfn.  Coefficient  Atom+Function         Bfn.  Coefficient  Atom+Function  
  ----- ------------  ---------------      ----- ------------  ---------------
    94      0.174007   6 C  s               136      0.174007   8 C  s         
    10     -0.136307   2 C  s                52     -0.136307   4 C  s         
   262     -0.136307  14 C  s               304     -0.136307  16 C  s         
   178      0.130590  10 C  s               220      0.130590  12 C  s         
    93      0.121925   6 C  s               135      0.121925   8 C  s         

 Vector   16  Occ=1.000000D+00  E=-5.326060D-01  Symmetry=a1
              MO Center= -2.6D-14,  2.7D-15,  2.6D-01, r^2= 4.2D+00
   Bfn.  Coefficient  Atom+Function         Bfn.  Coefficient  Atom+Function  
  ----- ------------  ---------------      ----- ------------  ---------------
    12      0.117515   2 C  px               54      0.117515   4 C  px        
   264     -0.117515  14 C  px              306     -0.117515  16 C  px        
   182      0.115740  10 C  pz              224      0.115740  12 C  pz        
     2      0.087530   1 H  s                44      0.087530   3 H  s         
   170      0.087764   9 H  s               212      0.087764  11 H  s         

 Vector   17  Occ=1.000000D+00  E=-4.798254D-01  Symmetry=b2
              MO Center= -2.1D-15,  3.0D-14,  1.1D-01, r^2= 5.1D+00
   Bfn.  Coefficient  Atom+Function         Bfn.  Coefficient  Atom+Function  
  ----- ------------  ---------------      ----- ------------  ---------------
   178      0.158956  10 C  s               220     -0.158956  12 C  s         
    98     -0.129306   6 C  pz              140      0.129306   8 C  pz        
   170      0.128131   9 H  s               177      0.127568  10 C  s         
   212     -0.128131  11 H  s               219     -0.127568  12 C  s         
    10     -0.125365   2 C  s                52      0.125365   4 C  s         

 Vector   18  Occ=1.000000D+00  E=-4.701804D-01  Symmetry=a1
              MO Center= -1.5D-16, -1.6D-14, -3.2D-01, r^2= 3.5D+00
   Bfn.  Coefficient  Atom+Function         Bfn.  Coefficient  Atom+Function  
  ----- ------------  ---------------      ----- ------------  ---------------
    98      0.174223   6 C  pz              140      0.174223   8 C  pz        
   181     -0.153700  10 C  py              223      0.153700  12 C  py        
   101      0.117286   6 C  pz              143      0.117286   8 C  pz        
    86     -0.111936   5 H  s               128     -0.111936   7 H  s         
    13     -0.109767   2 C  py               55      0.109767   4 C  py        

 Vector   19  Occ=1.000000D+00  E=-4.569066D-01  Symmetry=b2
              MO Center=  1.1D-16, -1.5D-14, -8.0D-02, r^2= 4.4D+00
   Bfn.  Coefficient  Atom+Function         Bfn.  Coefficient  Atom+Function  
  ----- ------------  ---------------      ----- ------------  ---------------
    12      0.151465   2 C  px               54     -0.151465   4 C  px        
   264     -0.151465  14 C  px              306      0.151465  16 C  px        
     2      0.128694   1 H  s                44     -0.128694   3 H  s         
   254      0.128694  13 H  s               296     -0.128694  15 H  s         
    98     -0.098918   6 C  pz              140      0.098918   8 C  pz        

 Vector   20  Occ=1.000000D+00  E=-4.314759D-01  Symmetry=b1
              MO Center= -4.8D-15,  4.1D-15,  9.2D-02, r^2= 3.1D+00
   Bfn.  Coefficient  Atom+Function         Bfn.  Coefficient  Atom+Function  
  ----- ------------  ---------------      ----- ------------  ---------------
   180      0.156018  10 C  px              222      0.156018  12 C  px        
    14      0.125371   2 C  pz               56      0.125371   4 C  pz        
   183      0.125608  10 C  px              225      0.125608  12 C  px        
   266     -0.125371  14 C  pz              308     -0.125371  16 C  pz        
    96     -0.115831   6 C  px              138     -0.115831   8 C  px        

 Vector   21  Occ=1.000000D+00  E=-3.972792D-01  Symmetry=a1
              MO Center= -4.3D-14, -2.8D-15,  1.7D-01, r^2= 3.7D+00
   Bfn.  Coefficient  Atom+Function         Bfn.  Coefficient  Atom+Function  
  ----- ------------  ---------------      ----- ------------  ---------------
   182      0.150290  10 C  pz              224      0.150290  12 C  pz        
    97      0.147480   6 C  py              139     -0.147480   8 C  py        
   170      0.130686   9 H  s               212      0.130686  11 H  s         
   100      0.122261   6 C  py              142     -0.122261   8 C  py        
    14     -0.096921   2 C  pz               56     -0.096921   4 C  pz        

 Vector   22  Occ=1.000000D+00  E=-3.854905D-01  Symmetry=b1
              MO Center=  4.9D-14, -2.7D-14, -2.1D-01, r^2= 3.7D+00
   Bfn.  Coefficient  Atom+Function         Bfn.  Coefficient  Atom+Function  
  ----- ------------  ---------------      ----- ------------  ---------------
    96     -0.144852   6 C  px              138     -0.144852   8 C  px        
    12      0.138442   2 C  px               54      0.138442   4 C  px        
   264      0.138442  14 C  px              306      0.138442  16 C  px        
     2      0.119463   1 H  s                44      0.119463   3 H  s         
   254     -0.119463  13 H  s               296     -0.119463  15 H  s         

 Vector   23  Occ=1.000000D+00  E=-3.249595D-01  Symmetry=a2
              MO Center= -2.5D-14, -1.5D-13, -3.8D-01, r^2= 3.5D+00
   Bfn.  Coefficient  Atom+Function         Bfn.  Coefficient  Atom+Function  
  ----- ------------  ---------------      ----- ------------  ---------------
    96      0.225070   6 C  px              138     -0.225070   8 C  px        
    99      0.167984   6 C  px              141     -0.167984   8 C  px        
    14     -0.125829   2 C  pz               56      0.125829   4 C  pz        
   266      0.125829  14 C  pz              308     -0.125829  16 C  pz        
    12     -0.114849   2 C  px               54      0.114849   4 C  px        

 Vector   24  Occ=1.000000D+00  E=-3.177580D-01  Symmetry=b1
              MO Center=  2.1D-14,  2.1D-13,  4.2D-02, r^2= 2.9D+00
   Bfn.  Coefficient  Atom+Function         Bfn.  Coefficient  Atom+Function  
  ----- ------------  ---------------      ----- ------------  ---------------
    13      0.182242   2 C  py               55     -0.182242   4 C  py        
   265     -0.182242  14 C  py              307      0.182242  16 C  py        
    16      0.133885   2 C  py               58     -0.133885   4 C  py        
   180     -0.134339  10 C  px              222     -0.134339  12 C  px        
   268     -0.133885  14 C  py              310      0.133885  16 C  py        

 Vector   25  Occ=1.000000D+00  E=-2.914591D-01  Symmetry=b2
              MO Center=  2.2D-14,  6.9D-15,  1.8D-01, r^2= 3.6D+00
   Bfn.  Coefficient  Atom+Function         Bfn.  Coefficient  Atom+Function  
  ----- ------------  ---------------      ----- ------------  ---------------
   182     -0.193534  10 C  pz              224      0.193534  12 C  pz        
   178      0.187209  10 C  s               220     -0.187209  12 C  s         
    94     -0.149972   6 C  s               136      0.149972   8 C  s         
    14      0.146726   2 C  pz               56     -0.146726   4 C  pz        
   266      0.146726  14 C  pz              308     -0.146726  16 C  pz        

 Vector   26  Occ=1.000000D+00  E=-2.913233D-01  Symmetry=a1
              MO Center= -8.6D-15, -1.6D-15,  4.8D-01, r^2= 3.0D+00
   Bfn.  Coefficient  Atom+Function         Bfn.  Coefficient  Atom+Function  
  ----- ------------  ---------------      ----- ------------  ---------------
   181      0.247557  10 C  py              223     -0.247557  12 C  py        
   184      0.167749  10 C  py              226     -0.167749  12 C  py        
    94      0.122504   6 C  s               136      0.122504   8 C  s         
   187      0.121393  10 C  py              229     -0.121393  12 C  py        
    98      0.114503   6 C  pz              140      0.114503   8 C  pz        

 Vector   27  Occ=1.000000D+00  E=-2.694859D-01  Symmetry=a2
              MO Center=  6.1D-16, -4.3D-14,  4.5D-01, r^2= 3.0D+00
   Bfn.  Coefficient  Atom+Function         Bfn.  Coefficient  Atom+Function  
  ----- ------------  ---------------      ----- ------------  ---------------
   180      0.224437  10 C  px              222     -0.224437  12 C  px        
   183      0.171680  10 C  px              225     -0.171680  12 C  px        
    12     -0.134782   2 C  px               54      0.134782   4 C  px        
   264     -0.134782  14 C  px              306      0.134782  16 C  px        
    10      0.128591   2 C  s                52     -0.128591   4 C  s         

 Vector   28  Occ=1.000000D+00  E=-2.171628D-01  Symmetry=b2
              MO Center=  2.6D-15,  2.3D-15, -7.9D-01, r^2= 3.5D+00
   Bfn.  Coefficient  Atom+Function         Bfn.  Coefficient  Atom+Function  
  ----- ------------  ---------------      ----- ------------  ---------------
    97      0.283788   6 C  py              139      0.283788   8 C  py        
   103      0.256324   6 C  py              145      0.256324   8 C  py        
   100      0.235459   6 C  py              142      0.235459   8 C  py        
   101     -0.133279   6 C  pz              143      0.133279   8 C  pz        
    98     -0.127088   6 C  pz              140      0.127088   8 C  pz        

 Vector   29  Occ=1.000000D+00  E=-1.743713D-01  Symmetry=a1
              MO Center= -1.0D-14,  2.2D-15, -6.3D-01, r^2= 3.7D+00
   Bfn.  Coefficient  Atom+Function         Bfn.  Coefficient  Atom+Function  
  ----- ------------  ---------------      ----- ------------  ---------------
   103     -0.309672   6 C  py              145      0.309672   8 C  py        
    11      0.284609   2 C  s                53      0.284609   4 C  s         
   263      0.284609  14 C  s               305      0.284609  16 C  s         
   179     -0.277581  10 C  s               221     -0.277581  12 C  s         
    97     -0.244411   6 C  py              139      0.244411   8 C  py        

 Vector   30  Occ=0.000000D+00  E= 4.361417D-02  Symmetry=a1
              MO Center= -1.6D-12, -4.8D-13, -6.4D-01, r^2= 7.4D+00
   Bfn.  Coefficient  Atom+Function         Bfn.  Coefficient  Atom+Function  
  ----- ------------  ---------------      ----- ------------  ---------------
   179      3.161066  10 C  s               221      3.161066  12 C  s         
    11     -1.819566   2 C  s                53     -1.819566   4 C  s         
   263     -1.819566  14 C  s               305     -1.819566  16 C  s         
   188     -1.260124  10 C  pz              230     -1.260124  12 C  pz        
    87      0.994770   5 H  s               129      0.994770   7 H  s         

 Vector   31  Occ=0.000000D+00  E= 4.742383D-02  Symmetry=a1
              MO Center=  4.4D-15, -6.7D-16,  9.9D-01, r^2= 9.8D+00
   Bfn.  Coefficient  Atom+Function         Bfn.  Coefficient  Atom+Function  
  ----- ------------  ---------------      ----- ------------  ---------------
   179      1.752100  10 C  s               221      1.752100  12 C  s         
     3     -1.224901   1 H  s                45     -1.224901   3 H  s         
   255     -1.224901  13 H  s               297     -1.224901  15 H  s         
   171     -1.163518   9 H  s               213     -1.163518  11 H  s         
    18      0.746327   2 C  px               60      0.746327   4 C  px        

 Vector   32  Occ=0.000000D+00  E= 5.024948D-02  Symmetry=b1
              MO Center=  1.6D-12,  4.4D-16,  1.7D-01, r^2= 8.2D+00
   Bfn.  Coefficient  Atom+Function         Bfn.  Coefficient  Atom+Function  
  ----- ------------  ---------------      ----- ------------  ---------------
    11      2.049862   2 C  s                53      2.049862   4 C  s         
   263     -2.049862  14 C  s               305     -2.049862  16 C  s         
     3     -0.974682   1 H  s                45     -0.974682   3 H  s         
   255      0.974682  13 H  s               297      0.974682  15 H  s         
   186     -0.820483  10 C  px              228     -0.820483  12 C  px        

 Vector   33  Occ=0.000000D+00  E= 7.995370D-02  Symmetry=b2
              MO Center=  8.7D-14,  2.4D-13,  9.8D-01, r^2= 1.0D+01
   Bfn.  Coefficient  Atom+Function         Bfn.  Coefficient  Atom+Function  
  ----- ------------  ---------------      ----- ------------  ---------------
   179      2.870654  10 C  s               221     -2.870654  12 C  s         
    11      1.794950   2 C  s                53     -1.794950   4 C  s         
   263      1.794950  14 C  s               305     -1.794950  16 C  s         
   171     -1.725052   9 H  s               213      1.725052  11 H  s         
     3     -0.811731   1 H  s                45      0.811731   3 H  s         

 Vector   34  Occ=0.000000D+00  E= 8.820497D-02  Symmetry=a1
              MO Center= -4.5D-15, -3.0D-13, -7.3D-01, r^2= 1.1D+01
   Bfn.  Coefficient  Atom+Function         Bfn.  Coefficient  Atom+Function  
  ----- ------------  ---------------      ----- ------------  ---------------
   179     -2.304974  10 C  s               221     -2.304974  12 C  s         
    87      2.099453   5 H  s               129      2.099453   7 H  s         
   104      1.226548   6 C  pz              146      1.226548   8 C  pz        
   171      1.214881   9 H  s               213      1.214881  11 H  s         
    11      1.164470   2 C  s                53      1.164470   4 C  s         

 Vector   35  Occ=0.000000D+00  E= 9.407781D-02  Symmetry=a2
              MO Center= -4.2D-14,  2.4D-15, -2.1D-02, r^2= 1.2D+01
   Bfn.  Coefficient  Atom+Function         Bfn.  Coefficient  Atom+Function  
  ----- ------------  ---------------      ----- ------------  ---------------
    11      4.289428   2 C  s                53     -4.289428   4 C  s         
   263     -4.289428  14 C  s               305      4.289428  16 C  s         
     3     -2.081038   1 H  s                45      2.081038   3 H  s         
   255      2.081038  13 H  s               297     -2.081038  15 H  s         
   186     -1.102007  10 C  px              228      1.102007  12 C  px        

 Vector   36  Occ=0.000000D+00  E= 9.914548D-02  Symmetry=b2
              MO Center=  5.5D-15,  3.1D-13, -1.6D+00, r^2= 9.9D+00
   Bfn.  Coefficient  Atom+Function         Bfn.  Coefficient  Atom+Function  
  ----- ------------  ---------------      ----- ------------  ---------------
    95      4.509759   6 C  s               137     -4.509759   8 C  s         
   179     -2.816480  10 C  s               221      2.816480  12 C  s         
    87     -2.200989   5 H  s               129      2.200989   7 H  s         
   171      1.214381   9 H  s               213     -1.214381  11 H  s         
    20      1.073506   2 C  pz               62     -1.073506   4 C  pz        

 Vector   37  Occ=0.000000D+00  E= 1.069097D-01  Symmetry=a1
              MO Center=  3.3D-16, -2.7D-13,  5.6D-01, r^2= 1.0D+01
   Bfn.  Coefficient  Atom+Function         Bfn.  Coefficient  Atom+Function  
  ----- ------------  ---------------      ----- ------------  ---------------
   171      2.121952   9 H  s               213      2.121952  11 H  s         
    87     -1.336482   5 H  s               129     -1.336482   7 H  s         
   188     -1.236072  10 C  pz              230     -1.236072  12 C  pz        
   104     -1.022085   6 C  pz              146     -1.022085   8 C  pz        
    11      0.983291   2 C  s                53      0.983291   4 C  s         

 Vector   38  Occ=0.000000D+00  E= 1.081025D-01  Symmetry=b1
              MO Center=  4.6D-15, -1.1D-14,  2.7D-01, r^2= 9.4D+00
   Bfn.  Coefficient  Atom+Function         Bfn.  Coefficient  Atom+Function  
  ----- ------------  ---------------      ----- ------------  ---------------
     3      1.847577   1 H  s                45      1.847577   3 H  s         
   255     -1.847577  13 H  s               297     -1.847577  15 H  s         
    18     -1.331872   2 C  px               60     -1.331872   4 C  px        
   270     -1.331872  14 C  px              312     -1.331872  16 C  px        
   186     -0.502949  10 C  px              228     -0.502949  12 C  px        

 Vector   39  Occ=0.000000D+00  E= 1.216321D-01  Symmetry=b2
              MO Center= -2.7D-15,  7.2D-15,  3.0D-01, r^2= 1.3D+01
   Bfn.  Coefficient  Atom+Function         Bfn.  Coefficient  Atom+Function  
  ----- ------------  ---------------      ----- ------------  ---------------
   171     -2.371886   9 H  s               213      2.371886  11 H  s         
     3      2.157988   1 H  s                45     -2.157988   3 H  s         
   255      2.157988  13 H  s               297     -2.157988  15 H  s         
    18     -1.776947   2 C  px               60      1.776947   4 C  px        
   270      1.776947  14 C  px              312     -1.776947  16 C  px        

 Vector   40  Occ=0.000000D+00  E= 1.375092D-01  Symmetry=b2
              MO Center= -4.8D-13,  2.4D-17,  9.2D-01, r^2= 6.3D+00
   Bfn.  Coefficient  Atom+Function         Bfn.  Coefficient  Atom+Function  
  ----- ------------  ---------------      ----- ------------  ---------------
   179      3.811077  10 C  s               221     -3.811077  12 C  s         
   187      3.486837  10 C  py              229      3.486837  12 C  py        
    11      2.499566   2 C  s                53     -2.499566   4 C  s         
   263      2.499566  14 C  s               305     -2.499566  16 C  s         
    95     -2.485010   6 C  s               137      2.485010   8 C  s         

 Vector   41  Occ=0.000000D+00  E= 1.664442D-01  Symmetry=a2
              MO Center=  4.7D-14, -1.5D-15, -7.7D-02, r^2= 5.2D+00
   Bfn.  Coefficient  Atom+Function         Bfn.  Coefficient  Atom+Function  
  ----- ------------  ---------------      ----- ------------  ---------------
    19      1.466331   2 C  py               61      1.466331   4 C  py        
   271     -1.466331  14 C  py              313     -1.466331  16 C  py        
   186      0.909748  10 C  px              228     -0.909748  12 C  px        
     3      0.727142   1 H  s                45     -0.727142   3 H  s         
   255     -0.727142  13 H  s               297      0.727142  15 H  s         

 Vector   42  Occ=0.000000D+00  E= 1.681463D-01  Symmetry=a1
              MO Center=  2.3D-14,  1.3D-12, -3.7D-01, r^2= 9.2D+00
   Bfn.  Coefficient  Atom+Function         Bfn.  Coefficient  Atom+Function  
  ----- ------------  ---------------      ----- ------------  ---------------
    11      5.008975   2 C  s                53      5.008975   4 C  s         
   263      5.008975  14 C  s               305      5.008975  16 C  s         
    95     -4.529730   6 C  s               137     -4.529730   8 C  s         
   179     -4.139459  10 C  s               221     -4.139459  12 C  s         
    18     -2.521476   2 C  px               60     -2.521476   4 C  px        

 Vector   43  Occ=0.000000D+00  E= 1.696809D-01  Symmetry=b1
              MO Center= -1.2D-12,  1.3D-12, -3.8D-01, r^2= 7.8D+00
   Bfn.  Coefficient  Atom+Function         Bfn.  Coefficient  Atom+Function  
  ----- ------------  ---------------      ----- ------------  ---------------
   102      1.377386   6 C  px              144      1.377386   8 C  px        
    11     -1.171618   2 C  s                53     -1.171618   4 C  s         
   263      1.171618  14 C  s               305      1.171618  16 C  s         
    18      0.731987   2 C  px               60      0.731987   4 C  px        
   270      0.731987  14 C  px              312      0.731987  16 C  px        

 Vector   44  Occ=0.000000D+00  E= 1.802949D-01  Symmetry=a1
              MO Center=  2.4D-12, -7.2D-13, -3.4D-01, r^2= 6.9D+00
   Bfn.  Coefficient  Atom+Function         Bfn.  Coefficient  Atom+Function  
  ----- ------------  ---------------      ----- ------------  ---------------
    95      6.307609   6 C  s               137      6.307609   8 C  s         
    11     -4.803197   2 C  s                53     -4.803197   4 C  s         
   263     -4.803197  14 C  s               305     -4.803197  16 C  s         
   179      4.595784  10 C  s               221      4.595784  12 C  s         
    18      2.329273   2 C  px               60      2.329273   4 C  px        

 Vector   45  Occ=0.000000D+00  E= 1.832211D-01  Symmetry=b1
              MO Center= -1.5D-12, -5.6D-13, -3.4D-02, r^2= 5.9D+00
   Bfn.  Coefficient  Atom+Function         Bfn.  Coefficient  Atom+Function  
  ----- ------------  ---------------      ----- ------------  ---------------
   102      1.376300   6 C  px              144      1.376300   8 C  px        
    20      1.084936   2 C  pz               62      1.084936   4 C  pz        
   272     -1.084936  14 C  pz              314     -1.084936  16 C  pz        
    11     -1.001560   2 C  s                53     -1.001560   4 C  s         
   263      1.001560  14 C  s               305      1.001560  16 C  s         

 Vector   46  Occ=0.000000D+00  E= 1.951568D-01  Symmetry=b2
              MO Center=  8.9D-16,  2.7D-13, -5.0D-01, r^2= 7.9D+00
   Bfn.  Coefficient  Atom+Function         Bfn.  Coefficient  Atom+Function  
  ----- ------------  ---------------      ----- ------------  ---------------
    95      3.049411   6 C  s               137     -3.049411   8 C  s         
   104      2.177134   6 C  pz              146     -2.177134   8 C  pz        
   179     -2.077107  10 C  s               221      2.077107  12 C  s         
   188      2.063551  10 C  pz              230     -2.063551  12 C  pz        
    87      1.861979   5 H  s               129     -1.861979   7 H  s         

 Vector   47  Occ=0.000000D+00  E= 1.978811D-01  Symmetry=a2
              MO Center=  3.1D-12, -1.0D-12, -7.1D-01, r^2= 1.0D+01
   Bfn.  Coefficient  Atom+Function         Bfn.  Coefficient  Atom+Function  
  ----- ------------  ---------------      ----- ------------  ---------------
    11      9.442563   2 C  s                53     -9.442563   4 C  s         
   263     -9.442563  14 C  s               305      9.442563  16 C  s         
    18     -5.631038   2 C  px               60      5.631038   4 C  px        
   270     -5.631038  14 C  px              312      5.631038  16 C  px        
     3      3.204029   1 H  s                45     -3.204029   3 H  s         

 Vector   48  Occ=0.000000D+00  E= 2.167824D-01  Symmetry=b2
              MO Center= -1.8D-12, -5.7D-13, -2.0D-01, r^2= 9.2D+00
   Bfn.  Coefficient  Atom+Function         Bfn.  Coefficient  Atom+Function  
  ----- ------------  ---------------      ----- ------------  ---------------
   179      5.427103  10 C  s               221     -5.427103  12 C  s         
    95     -4.749267   6 C  s               137      4.749267   8 C  s         
    11      3.152408   2 C  s                53     -3.152408   4 C  s         
   263      3.152408  14 C  s               305     -3.152408  16 C  s         
   187      3.016069  10 C  py              229      3.016069  12 C  py        

 Vector   49  Occ=0.000000D+00  E= 2.283842D-01  Symmetry=b1
              MO Center=  2.3D-12, -2.1D-13,  1.1D-01, r^2= 8.9D+00
   Bfn.  Coefficient  Atom+Function         Bfn.  Coefficient  Atom+Function  
  ----- ------------  ---------------      ----- ------------  ---------------
    19      0.897071   2 C  py               61     -0.897071   4 C  py        
   271     -0.897071  14 C  py              313      0.897071  16 C  py        
   186     -0.586239  10 C  px              228     -0.586239  12 C  px        
    18      0.404668   2 C  px               60      0.404668   4 C  px        
   270      0.404668  14 C  px              312      0.404668  16 C  px        

 Vector   50  Occ=0.000000D+00  E= 2.288045D-01  Symmetry=a1
              MO Center= -2.5D-12,  2.7D-12,  6.4D-01, r^2= 8.3D+00
   Bfn.  Coefficient  Atom+Function         Bfn.  Coefficient  Atom+Function  
  ----- ------------  ---------------      ----- ------------  ---------------
    11      3.265846   2 C  s                53      3.265846   4 C  s         
   263      3.265846  14 C  s               305      3.265846  16 C  s         
   188      2.138256  10 C  pz              230      2.138256  12 C  pz        
   179     -1.996670  10 C  s               221     -1.996670  12 C  s         
    95     -1.748512   6 C  s               137     -1.748512   8 C  s         

 Vector   51  Occ=0.000000D+00  E= 2.355304D-01  Symmetry=a2
              MO Center= -1.4D-15,  1.2D-13,  9.6D-01, r^2= 7.7D+00
   Bfn.  Coefficient  Atom+Function         Bfn.  Coefficient  Atom+Function  
  ----- ------------  ---------------      ----- ------------  ---------------
   186     -2.223815  10 C  px              228      2.223815  12 C  px        
    11      2.089708   2 C  s                53     -2.089708   4 C  s         
   263     -2.089708  14 C  s               305      2.089708  16 C  s         
    18     -1.093245   2 C  px               60      1.093245   4 C  px        
   270     -1.093245  14 C  px              312      1.093245  16 C  px        

 Vector   52  Occ=0.000000D+00  E= 2.754552D-01  Symmetry=a1
              MO Center=  5.5D-13, -5.2D-12, -4.8D-01, r^2= 8.5D+00
   Bfn.  Coefficient  Atom+Function         Bfn.  Coefficient  Atom+Function  
  ----- ------------  ---------------      ----- ------------  ---------------
   179      3.341451  10 C  s               221      3.341451  12 C  s         
    11     -1.805165   2 C  s                53     -1.805165   4 C  s         
   188     -1.797842  10 C  pz              230     -1.797842  12 C  pz        
   263     -1.805165  14 C  s               305     -1.805165  16 C  s         
   187      1.373397  10 C  py              229     -1.373397  12 C  py        

 Vector   53  Occ=0.000000D+00  E= 2.809813D-01  Symmetry=b2
              MO Center= -4.0D-13,  4.6D-12,  1.9D-01, r^2= 7.2D+00
   Bfn.  Coefficient  Atom+Function         Bfn.  Coefficient  Atom+Function  
  ----- ------------  ---------------      ----- ------------  ---------------
    95      8.008693   6 C  s               137     -8.008693   8 C  s         
   179     -6.153092  10 C  s               221      6.153092  12 C  s         
   187     -4.932766  10 C  py              229     -4.932766  12 C  py        
   104      3.826064   6 C  pz              146     -3.826064   8 C  pz        
    11     -3.131892   2 C  s                53      3.131892   4 C  s         

 Vector   54  Occ=0.000000D+00  E= 2.837070D-01  Symmetry=a1
              MO Center=  1.9D-13,  2.9D-14,  1.1D-01, r^2= 8.0D+00
   Bfn.  Coefficient  Atom+Function         Bfn.  Coefficient  Atom+Function  
  ----- ------------  ---------------      ----- ------------  ---------------
   179      4.879353  10 C  s               221      4.879353  12 C  s         
   188     -3.595047  10 C  pz              230     -3.595047  12 C  pz        
    11     -3.266680   2 C  s                53     -3.266680   4 C  s         
   263     -3.266680  14 C  s               305     -3.266680  16 C  s         
   171      2.006610   9 H  s               213      2.006610  11 H  s         

 Vector   55  Occ=0.000000D+00  E= 3.009172D-01  Symmetry=a2
              MO Center=  3.7D-14, -7.0D-14, -1.7D-01, r^2= 6.9D+00
   Bfn.  Coefficient  Atom+Function         Bfn.  Coefficient  Atom+Function  
  ----- ------------  ---------------      ----- ------------  ---------------
    11      5.641833   2 C  s                53     -5.641833   4 C  s         
   263     -5.641833  14 C  s               305      5.641833  16 C  s         
    19      3.122779   2 C  py               61      3.122779   4 C  py        
   271     -3.122779  14 C  py              313     -3.122779  16 C  py        
    20      2.694929   2 C  pz               62     -2.694929   4 C  pz        

 Vector   56  Occ=0.000000D+00  E= 3.126565D-01  Symmetry=b1
              MO Center= -1.4D-13,  9.9D-14,  4.6D-01, r^2= 6.9D+00
   Bfn.  Coefficient  Atom+Function         Bfn.  Coefficient  Atom+Function  
  ----- ------------  ---------------      ----- ------------  ---------------
    11      2.921566   2 C  s                53      2.921566   4 C  s         
   263     -2.921566  14 C  s               305     -2.921566  16 C  s         
    18     -2.457093   2 C  px               60     -2.457093   4 C  px        
   270     -2.457093  14 C  px              312     -2.457093  16 C  px        
   186     -1.862862  10 C  px              228     -1.862862  12 C  px        

 Vector   57  Occ=0.000000D+00  E= 3.290708D-01  Symmetry=a1
              MO Center= -1.5D-14,  7.5D-14,  1.8D-01, r^2= 8.3D+00
   Bfn.  Coefficient  Atom+Function         Bfn.  Coefficient  Atom+Function  
  ----- ------------  ---------------      ----- ------------  ---------------
    95      9.756931   6 C  s               137      9.756931   8 C  s         
    11     -4.764393   2 C  s                53     -4.764393   4 C  s         
   263     -4.764393  14 C  s               305     -4.764393  16 C  s         
   104      4.662300   6 C  pz              146      4.662300   8 C  pz        
    18      2.643709   2 C  px               60      2.643709   4 C  px        

 Vector   58  Occ=0.000000D+00  E= 3.399415D-01  Symmetry=b2
              MO Center= -1.1D-13, -2.5D-12, -3.5D-01, r^2= 8.4D+00
   Bfn.  Coefficient  Atom+Function         Bfn.  Coefficient  Atom+Function  
  ----- ------------  ---------------      ----- ------------  ---------------
   179     10.653571  10 C  s               221    -10.653571  12 C  s         
    95     -9.540379   6 C  s               137      9.540379   8 C  s         
    11      5.958528   2 C  s                53     -5.958528   4 C  s         
   263      5.958528  14 C  s               305     -5.958528  16 C  s         
   187      5.202709  10 C  py              229      5.202709  12 C  py        

 Vector   59  Occ=0.000000D+00  E= 3.527665D-01  Symmetry=a1
              MO Center=  2.0D-12, -8.5D-13,  3.9D-01, r^2= 9.9D+00
   Bfn.  Coefficient  Atom+Function         Bfn.  Coefficient  Atom+Function  
  ----- ------------  ---------------      ----- ------------  ---------------
    11      5.257693   2 C  s                53      5.257693   4 C  s         
   263      5.257693  14 C  s               305      5.257693  16 C  s         
   104     -4.276774   6 C  pz              146     -4.276774   8 C  pz        
    95     -3.533587   6 C  s               137     -3.533587   8 C  s         
[...]
   19 Stretch                 15    16                       1.08886    0.00002
   20 Bend                     1     2     4               115.65681   -0.00107
   21 Bend                     1     2     6               122.34922    0.00176
   22 Bend                     1     2    10               125.13790    0.00145
   23 Bend                     2     4     3               115.65681   -0.00107
   24 Bend                     2     4     8               109.94642   -0.00381
   25 Bend                     2     4    12                88.46229    0.00199
   26 Bend                     2     6     5               132.77420   -0.00122
   27 Bend                     2     6    14                91.23932    0.00259
   28 Bend                     2    10     9               124.05994    0.00096
   29 Bend                     2    10    12                91.53771   -0.00199
   30 Bend                     2    10    14                85.84006   -0.00136
   31 Bend                     3     4     8               122.34922    0.00176
   32 Bend                     3     4    12               125.13790    0.00145
   33 Bend                     4     2     6               109.94642   -0.00381
   34 Bend                     4     2    10                88.46229    0.00199
   35 Bend                     4     8     7               132.77420   -0.00122
   36 Bend                     4     8    16                91.23932    0.00259
   37 Bend                     4    12    10                91.53771   -0.00199
   38 Bend                     4    12    11               124.05994    0.00096
   39 Bend                     4    12    16                85.84006   -0.00136
   40 Bend                     5     6    14               132.77420   -0.00122
   41 Bend                     6     2    10                88.23973   -0.00002
   42 Bend                     6    14    10                88.23973   -0.00002
   43 Bend                     6    14    13               122.34922    0.00176
   44 Bend                     6    14    16               109.94642   -0.00381
   45 Bend                     7     8    16               132.77420   -0.00122
   46 Bend                     8     4    12                88.23973   -0.00002
   47 Bend                     8    16    12                88.23973   -0.00002
   48 Bend                     8    16    14               109.94642   -0.00381
   49 Bend                     8    16    15               122.34922    0.00176
   50 Bend                     9    10    12               128.01159    0.00182
   51 Bend                     9    10    14               124.05994    0.00096
   52 Bend                    10    12    11               128.01159    0.00182
   53 Bend                    10    12    16                91.53771   -0.00199
   54 Bend                    10    14    13               125.13790    0.00145
   55 Bend                    10    14    16                88.46229    0.00199
   56 Bend                    11    12    16               124.05994    0.00096
   57 Bend                    12    10    14                91.53771   -0.00199
   58 Bend                    12    16    14                88.46229    0.00199
   59 Bend                    12    16    15               125.13790    0.00145
   60 Bend                    13    14    16               115.65681   -0.00107
   61 Bend                    14    16    15               115.65681   -0.00107
   62 Torsion                  1     2     4     3           0.00000    0.00000
   63 Torsion                  1     2     4     8         143.68836   -0.00336
   64 Torsion                  1     2     4    12        -128.74354   -0.00250
   65 Torsion                  1     2     6     5         -48.06510    0.00177
   66 Torsion                  1     2     6    14         150.95482    0.00135
   67 Torsion                  1     2    10     9         -18.90454   -0.00054
   68 Torsion                  1     2    10    12         120.71459    0.00079
   69 Torsion                  1     2    10    14        -147.85498   -0.00110
   70 Torsion                  2     4     8     7         -92.74798    0.00329
   71 Torsion                  2     4     8    16          68.23210    0.00371
   72 Torsion                  2     4    12    10           0.00000    0.00000
   73 Torsion                  2     4    12    11         139.61914    0.00133
   74 Torsion                  2     4    12    16         -91.43043    0.00189
   75 Torsion                  2     6    14    10         -19.49186    0.00142
   76 Torsion                  2     6    14    13        -150.95482   -0.00135
   77 Torsion                  2     6    14    16          68.23210    0.00371
   78 Torsion                  2    10    12     4           0.00000    0.00000
   79 Torsion                  2    10    12    11        -137.06077   -0.00073
   80 Torsion                  2    10    12    16          85.87846   -0.00146
   81 Torsion                  2    10    14     6          18.58361   -0.00201
   82 Torsion                  2    10    14    13         147.85498    0.00110
   83 Torsion                  2    10    14    16         -91.43043    0.00189
   84 Torsion                  3     4     2     6        -143.68836    0.00336
   85 Torsion                  3     4     2    10         128.74354    0.00250
   86 Torsion                  3     4     8     7          48.06510   -0.00177
   87 Torsion                  3     4     8    16        -150.95482   -0.00135
   88 Torsion                  3     4    12    10        -120.71459   -0.00079
   89 Torsion                  3     4    12    11          18.90454    0.00054
   90 Torsion                  3     4    12    16         147.85498    0.00110
   91 Torsion                  4     2     6     5          92.74798   -0.00329
   92 Torsion                  4     2     6    14         -68.23210   -0.00371
   93 Torsion                  4     2    10     9        -139.61914   -0.00133
   94 Torsion                  4     2    10    12           0.00000    0.00000
   95 Torsion                  4     2    10    14          91.43043   -0.00189
   96 Torsion                  4     8    16    12          19.49186   -0.00142
   97 Torsion                  4     8    16    14         -68.23210   -0.00371
   98 Torsion                  4     8    16    15         150.95482    0.00135
   99 Torsion                  4    12    10     9         137.06077    0.00073
  100 Torsion                  4    12    10    14         -85.87846    0.00146
  101 Torsion                  4    12    16     8         -18.58361    0.00201
  102 Torsion                  4    12    16    14          91.43043   -0.00189
  103 Torsion                  4    12    16    15        -147.85498   -0.00110
  104 Torsion                  5     6     2    10        -179.52806   -0.00101
  105 Torsion                  5     6    14    10         179.52806    0.00101
  106 Torsion                  5     6    14    13          48.06510   -0.00177
  107 Torsion                  5     6    14    16         -92.74798    0.00329
  108 Torsion                  6     2     4     8           0.00000    0.00000
  109 Torsion                  6     2     4    12          87.56810    0.00086
  110 Torsion                  6     2    10     9         110.36683    0.00257
  111 Torsion                  6     2    10    12        -110.01403    0.00390
  112 Torsion                  6     2    10    14         -18.58361    0.00201
  113 Torsion                  6    14    10     9        -110.36683   -0.00257
  114 Torsion                  6    14    10    12         110.01403   -0.00390
  115 Torsion                  6    14    16     8           0.00000    0.00000
  116 Torsion                  6    14    16    12         -87.56810   -0.00086
  117 Torsion                  6    14    16    15         143.68836   -0.00336
  118 Torsion                  7     8     4    12         179.52806    0.00101
  119 Torsion                  7     8    16    12        -179.52806   -0.00101
  120 Torsion                  7     8    16    14          92.74798   -0.00329
  121 Torsion                  7     8    16    15         -48.06510    0.00177
  122 Torsion                  8     4     2    10         -87.56810   -0.00086
  123 Torsion                  8     4    12    10         110.01403   -0.00390
  124 Torsion                  8     4    12    11        -110.36683   -0.00257
  125 Torsion                  8     4    12    16          18.58361   -0.00201
  126 Torsion                  8    16    12    10        -110.01403    0.00390
  127 Torsion                  8    16    12    11         110.36683    0.00257
  128 Torsion                  8    16    14    10          87.56810    0.00086
  129 Torsion                  8    16    14    13        -143.68836    0.00336
  130 Torsion                  9    10    12    11           0.00000    0.00000
  131 Torsion                  9    10    12    16        -137.06077   -0.00073
  132 Torsion                  9    10    14    13          18.90454    0.00054
  133 Torsion                  9    10    14    16         139.61914    0.00133
  134 Torsion                 10     2     4    12           0.00000    0.00000
  135 Torsion                 10     2     6    14          19.49186   -0.00142
  136 Torsion                 10    12    16    14           0.00000    0.00000
  137 Torsion                 10    12    16    15         120.71459    0.00079
  138 Torsion                 10    14    16    12           0.00000    0.00000
  139 Torsion                 10    14    16    15        -128.74354   -0.00250
  140 Torsion                 11    12    10    14         137.06077    0.00073
  141 Torsion                 11    12    16    14        -139.61914   -0.00133
  142 Torsion                 11    12    16    15         -18.90454   -0.00054
  143 Torsion                 12     4     8    16         -19.49186    0.00142
  144 Torsion                 12    10    14    13        -120.71459   -0.00079
  145 Torsion                 12    10    14    16          -0.00000    0.00000
  146 Torsion                 12    16    14    13         128.74354    0.00250
  147 Torsion                 13    14    16    15           0.00000    0.00000
  148 Torsion                 14    10    12    16           0.00000    0.00000

 ==============================================================================
                                internuclear distances
 ------------------------------------------------------------------------------
       center one      |      center two      | atomic units |  angstroms
 ------------------------------------------------------------------------------
    2 C                |   1 H                |     2.05764  |     1.08886
    4 C                |   2 C                |     3.07036  |     1.62476
    4 C                |   3 H                |     2.05764  |     1.08886
    6 C                |   2 C                |     2.82928  |     1.49719
    6 C                |   5 H                |     2.04734  |     1.08341
    8 C                |   4 C                |     2.82928  |     1.49719
    8 C                |   7 H                |     2.04734  |     1.08341
   10 C                |   2 C                |     2.96945  |     1.57136
   10 C                |   9 H                |     2.05335  |     1.08658
   12 C                |   4 C                |     2.96945  |     1.57136
   12 C                |  10 C                |     2.91099  |     1.54043
   12 C                |  11 H                |     2.05335  |     1.08658
   14 C                |   6 C                |     2.82928  |     1.49719
   14 C                |  10 C                |     2.96945  |     1.57136
   14 C                |  13 H                |     2.05764  |     1.08886
   16 C                |   8 C                |     2.82928  |     1.49719
   16 C                |  12 C                |     2.96945  |     1.57136
   16 C                |  14 C                |     3.07036  |     1.62476
   16 C                |  15 H                |     2.05764  |     1.08886
 ------------------------------------------------------------------------------
                         number of included internuclear distances:         19
 ==============================================================================



 ==============================================================================
                                 internuclear angles
 ------------------------------------------------------------------------------
        center 1       |       center 2       |       center 3       |  degrees
 ------------------------------------------------------------------------------
    1 H                |   2 C                |   4 C                |   115.66
    1 H                |   2 C                |   6 C                |   122.35
    1 H                |   2 C                |  10 C                |   125.14
    4 C                |   2 C                |   6 C                |   109.95
    4 C                |   2 C                |  10 C                |    88.46
    6 C                |   2 C                |  10 C                |    88.24
    2 C                |   4 C                |   3 H                |   115.66
    2 C                |   4 C                |   8 C                |   109.95
    2 C                |   4 C                |  12 C                |    88.46
    3 H                |   4 C                |   8 C                |   122.35
    3 H                |   4 C                |  12 C                |   125.14
    8 C                |   4 C                |  12 C                |    88.24
    2 C                |   6 C                |   5 H                |   132.77
    2 C                |   6 C                |  14 C                |    91.24
    5 H                |   6 C                |  14 C                |   132.77
    4 C                |   8 C                |   7 H                |   132.77
    4 C                |   8 C                |  16 C                |    91.24
    7 H                |   8 C                |  16 C                |   132.77
    2 C                |  10 C                |   9 H                |   124.06
    2 C                |  10 C                |  12 C                |    91.54
    2 C                |  10 C                |  14 C                |    85.84
    9 H                |  10 C                |  12 C                |   128.01
    9 H                |  10 C                |  14 C                |   124.06
   12 C                |  10 C                |  14 C                |    91.54
    4 C                |  12 C                |  10 C                |    91.54
    4 C                |  12 C                |  11 H                |   124.06
    4 C                |  12 C                |  16 C                |    85.84
   10 C                |  12 C                |  11 H                |   128.01
   10 C                |  12 C                |  16 C                |    91.54
   11 H                |  12 C                |  16 C                |   124.06
    6 C                |  14 C                |  10 C                |    88.24
    6 C                |  14 C                |  13 H                |   122.35
    6 C                |  14 C                |  16 C                |   109.95
   10 C                |  14 C                |  13 H                |   125.14
   10 C                |  14 C                |  16 C                |    88.46
   13 H                |  14 C                |  16 C                |   115.66
    8 C                |  16 C                |  12 C                |    88.24
    8 C                |  16 C                |  14 C                |   109.95
    8 C                |  16 C                |  15 H                |   122.35
   12 C                |  16 C                |  14 C                |    88.46
   12 C                |  16 C                |  15 H                |   125.14
   14 C                |  16 C                |  15 H                |   115.66
 ------------------------------------------------------------------------------
                            number of included internuclear angles:         42
 ==============================================================================




 Task  times  cpu:      482.5s     wall:      271.0s
 Summary of allocated global arrays
-----------------------------------
  No active global arrays



                         GA Statistics for process    0
                         ------------------------------

       create   destroy   get      put      acc     scatter   gather  read&inc
calls:  703      703     6.90e+05 1.20e+05 2.53e+05    0        0     1.69e+04 
number of processes/call 1.00e+00 1.00e+00 1.00e+00 0.00e+00 0.00e+00
bytes total:             3.46e+09 6.22e+08 1.55e+09 0.00e+00 0.00e+00 1.35e+05
bytes remote:            0.00e+00 0.00e+00 0.00e+00 0.00e+00 0.00e+00 0.00e+00
Max memory consumed for GA by this process: 58705920 bytes
MA_summarize_allocated_blocks: starting scan ...
MA_summarize_allocated_blocks: scan completed: 0 heap blocks, 0 stack blocks
MA usage statistics:

	allocation statistics:
					      heap	     stack
					      ----	     -----
	current number of blocks	         0	         0
	maximum number of blocks	        26	        55
	current total bytes		         0	         0
	maximum total bytes		   4609616	  45681768
	maximum total K-bytes		      4610	     45682
	maximum total M-bytes		         5	        46


                                NWChem Input Module
                                -------------------





                                     CITATION
                                     --------
                Please cite the following reference when publishing
                           results obtained with NWChem:

                 M. Valiev, E.J. Bylaska, N. Govind, K. Kowalski,
              T.P. Straatsma, H.J.J. van Dam, D. Wang, J. Nieplocha,
                        E. Apra, T.L. Windus, W.A. de Jong
                 "NWChem: a comprehensive and scalable open-source
                  solution for large scale molecular simulations"
                      Comput. Phys. Commun. 181, 1477 (2010)
                           doi:10.1016/j.cpc.2010.04.018

                                      AUTHORS
                                      -------
          E. Apra, E. J. Bylaska, W. A. de Jong, N. Govind, K. Kowalski,
       T. P. Straatsma, M. Valiev, H. J. J. van Dam, D. Wang, T. L. Windus,
        J. Hammond, J. Autschbach, K. Bhaskaran-Nair, J. Brabec, K. Lopata,
    S. A. Fischer, S. Krishnamoorthy, M. Jacquelin, W. Ma, M. Klemm, O. Villa,
      Y. Chen, V. Anisimov, F. Aquino, S. Hirata, M. T. Hackler, V. Konjkov,
            D. Mejia-Rodriguez, T. Risthaus, M. Malagoli, A. Marenich,
   A. Otero-de-la-Roza, J. Mullin, P. Nichols, R. Peverati, J. Pittner, Y. Zhao,
        P.-D. Fan, A. Fonari, M. J. Williamson, R. J. Harrison, J. R. Rehr,
      M. Dupuis, D. Silverstein, D. M. A. Smith, J. Nieplocha, V. Tipparaju,
    M. Krishnan, B. E. Van Kuiken, A. Vazquez-Mayagoitia, L. Jensen, M. Swart,
      Q. Wu, T. Van Voorhis, A. A. Auer, M. Nooijen, L. D. Crosby, E. Brown,
      G. Cisneros, G. I. Fann, H. Fruchtl, J. Garza, K. Hirao, R. A. Kendall,
      J. A. Nichols, K. Tsemekhman, K. Wolinski, J. Anchell, D. E. Bernholdt,
      P. Borowski, T. Clark, D. Clerc, H. Dachsel, M. J. O. Deegan, K. Dyall,
    D. Elwood, E. Glendening, M. Gutowski, A. C. Hess, J. Jaffe, B. G. Johnson,
     J. Ju, R. Kobayashi, R. Kutteh, Z. Lin, R. Littlefield, X. Long, B. Meng,
      T. Nakajima, S. Niu, L. Pollack, M. Rosing, K. Glaesemann, G. Sandrone,
      M. Stave, H. Taylor, G. Thomas, J. H. van Lenthe, A. T. Wong, Z. Zhang.

 Total times  cpu:      482.7s     wall:      271.1s
