
                                 *****************
                                 * O   R   C   A *
                                 *****************

           --- An Ab Initio, DFT and Semiempirical electronic structure package ---

                  #######################################################
                  #                        -***-                        #
                  #  Department of molecular theory and spectroscopy    #
                  #              Directorship: Frank Neese              #
                  # Max Planck Institute for Chemical Energy Conversion #
                  #                  D-45470 Muelheim/Ruhr              #
                  #                       Germany                       #
                  #                                                     #
                  #                  All rights reserved                #
                  #                        -***-                        #
                  #######################################################


                         Program Version 3.0.3 - RELEASE   -


 With contributions from (in alphabetic order):
   Ute Becker             : Parallelization
   Dmytro Bykov           : SCF Hessian
   Dmitry Ganyushin       : Spin-Orbit,Spin-Spin,Magnetic field MRCI
   Andreas Hansen         : Spin unrestricted coupled pair/coupled cluster methods
   Dimitrios Liakos       : Extrapolation schemes; parallel MDCI
   Robert Izsak           : Overlap fitted RIJCOSX, COSX-SCS-MP3
   Christian Kollmar      : KDIIS, OOCD, Brueckner-CCSD(T), CCSD density
   Simone Kossmann        : Meta GGA functionals, TD-DFT gradient, OOMP2, MP2 Hessian
   Taras Petrenko         : DFT Hessian,TD-DFT gradient, ASA and ECA modules, normal mode analysis, Resonance Raman, ABS, FL, XAS/XES, NRVS
   Christoph Reimann      : Effective Core Potentials
   Michael Roemelt        : Restricted open shell CIS
   Christoph Riplinger    : Improved optimizer, TS searches, QM/MM, DLPNO-CCSD
   Barbara Sandhoefer     : DKH picture change effects
   Igor Schapiro          : Molecular dynamics
   Kantharuban Sivalingam : CASSCF convergence, NEVPT2
   Boris Wezisla          : Elementary symmetry handling
   Frank Wennmohs         : Technical directorship


 We gratefully acknowledge several colleagues who have allowed us to
 interface, adapt or use parts of their codes:
   Stefan Grimme, W. Hujo, H. Kruse, T. Risthaus : VdW corrections, initial TS optimization,
                                                   DFT functionals, gCP
   Ed Valeev                                     : LibInt (2-el integral package), F12 methods
   Garnet Chan, S. Sharma, R. Olivares           : DMRG
   Ulf Ekstrom                                   : XCFun DFT Library
   Mihaly Kallay                                 : mrcc  (arbitrary order and MRCC methods)
   Andreas Klamt, Michael Diedenhofen            : otool_cosmo (COSMO solvation model)
   Frank Weinhold                                : gennbo (NPA and NBO analysis)
   Christopher J. Cramer and Donald G. Truhlar   : smd solvation model


 Your calculation uses the libint2 library for the computation of 2-el integrals
 For citations please refer to: http://libint.valeyev.net

 This ORCA versions uses:
   CBLAS   interface :  Fast vector & matrix operations
   LAPACKE interface :  Fast linear algebra routines
   SCALAPACK package :  Parallel linear algebra routines


Your calculation utilizes the basis: cc-VDZ
Cite in your paper:
 H     : T.H. Dunning, Jr. J. Chem. Phys. 90, 1007 (1989).
 He    : D.E. Woon and T.H. Dunning, Jr. J. Chem. Phys. 100, 2975 (1994).
Li - Ne: T.H. Dunning, Jr. J. Chem. Phys. 90, 1007 (1989).
Na - Mg: D.E. Woon and T.H. Dunning, Jr.  (to be published)
Al - Ar: D.E. Woon and T.H. Dunning, Jr.  J. Chem. Phys. 98, 1358 (1993).

Your calculation utilizes polarization functions from the basis: cc-pVDZ
Cite in your paper:
 H     : T.H. Dunning, Jr. J. Chem. Phys. 90, 1007 (1989).
 He    : D.E. Woon and T.H. Dunning, Jr. J. Chem. Phys. 100, 2975 (1994).
Li - Ne: T.H. Dunning, Jr. J. Chem. Phys. 90, 1007 (1989).
Na - Mg: D.E. Woon and T.H. Dunning, Jr.  (to be published)
Al - Ar: D.E. Woon and T.H. Dunning, Jr.  J. Chem. Phys. 98, 1358 (1993).

================================================================================
                                        WARNINGS
                       Please study these warnings very carefully!
================================================================================
Now building the actual basis set

WARNING: The environment variable RSH_COMMAND is not set!
  ===> : All Displacements for the Numerical Hessian calculation
         will be started on localhost

WARNING: Geometry Optimization
  ===> : Switching off AutoStart
         For restart on a previous wavefunction, please use MOREAD


INFO   : the flag for use of LIBINT has been found!

================================================================================
                                       INPUT FILE
================================================================================
NAME = /home/vladimir/Quantum_Chemistry/ORCA/C8H8/cubane/optimize/CC/DLPNO_CCSDT/cc-pVDZ/./cubane.inp
|  1> # ================================================================
|  2> # Orca input file for cubane
|  3> # ================================================================
|  4> ! DLPNO-CCSD(T) cc-pVDZ cc-pVDZ/C TightSCF TightOpt
|  5> ! NumGrad
|  6> ! PAL4
|  7> 
|  8> %maxcore 2000
|  9> 
| 10> * xyz 0 1
| 11>  H                     1.42871342     1.42871342     1.42871342
| 12>  H                    -1.42871342    -1.42871342     1.42871342
| 13>  H                    -1.42871342     1.42871342    -1.42871342
| 14>  H                     1.42871342    -1.42871342    -1.42871342
| 15>  H                    -1.42871342    -1.42871342    -1.42871342
| 16>  H                     1.42871342     1.42871342    -1.42871342
| 17>  H                     1.42871342    -1.42871342     1.42871342
| 18>  H                    -1.42871342     1.42871342     1.42871342
| 19>  C                     0.79205620     0.79205620     0.79205620
| 20>  C                    -0.79205620    -0.79205620     0.79205620
| 21>  C                    -0.79205620     0.79205620    -0.79205620
| 22>  C                     0.79205620    -0.79205620    -0.79205620
| 23>  C                    -0.79205620    -0.79205620    -0.79205620
| 24>  C                     0.79205620     0.79205620    -0.79205620
| 25>  C                     0.79205620    -0.79205620     0.79205620
| 26>  C                    -0.79205620     0.79205620     0.79205620
| 27> *
| 28> 
| 29>                          ****END OF INPUT****
================================================================================

                       *****************************
                       * Geometry Optimization Run *
                       *****************************

Geometry optimization settings:
Update method            Update   .... BFGS
Choice of coordinates    CoordSys .... Redundant Internals
Initial Hessian          InHess   .... Almoef's Model

Convergence Tolerances:
Energy Change            TolE     ....  1.0000e-06 Eh
Max. Gradient            TolMAXG  ....  1.0000e-04 Eh/bohr
RMS Gradient             TolRMSG  ....  3.0000e-05 Eh/bohr
Max. Displacement        TolMAXD  ....  1.0000e-03 bohr
RMS Displacement         TolRMSD  ....  6.0000e-04 bohr

------------------------------------------------------------------------------
                        ORCA OPTIMIZATION COORDINATE SETUP
------------------------------------------------------------------------------

The optimization will be done in new redundant internal coordinates
Making redundant internal coordinates   ...  (new redundants) done
Evaluating the initial hessian          ...  (Almloef) done
Evaluating the coordinates              ...  done
Calculating the B-matrix                .... done
Calculating the G-matrix                .... done
Diagonalizing the G-matrix              .... done
The first mode is                       ....  134
The number of degrees of freedom        ....   42

    -----------------------------------------------------------------
                    Redundant Internal Coordinates


    -----------------------------------------------------------------
         Definition                    Initial Value    Approx d2E/dq
    -----------------------------------------------------------------
      1. B(C   8,H   0)                  1.1027         0.343657   
      2. B(C   9,H   1)                  1.1027         0.343657   
      3. B(C  10,H   2)                  1.1027         0.343657   
      4. B(C  11,H   3)                  1.1027         0.343657   
      5. B(C  12,C   9)                  1.5841         0.306228   
      6. B(C  12,C  10)                  1.5841         0.306228   
      7. B(C  12,H   4)                  1.1027         0.343657   
      8. B(C  12,C  11)                  1.5841         0.306228   
      9. B(C  13,C  11)                  1.5841         0.306228   
     10. B(C  13,C  10)                  1.5841         0.306228   
     11. B(C  13,C   8)                  1.5841         0.306228   
     12. B(C  13,H   5)                  1.1027         0.343657   
     13. B(C  14,C   9)                  1.5841         0.306228   
     14. B(C  14,C   8)                  1.5841         0.306228   
     15. B(C  14,H   6)                  1.1027         0.343657   
     16. B(C  14,C  11)                  1.5841         0.306228   
     17. B(C  15,C  10)                  1.5841         0.306228   
     18. B(C  15,C   9)                  1.5841         0.306228   
     19. B(C  15,C   8)                  1.5841         0.306228   
     20. B(C  15,H   7)                  1.1027         0.343657   
     21. A(H   0,C   8,C  13)          125.2644         0.311598   
     22. A(H   0,C   8,C  15)          125.2644         0.311598   
     23. A(C  13,C   8,C  15)           90.0000         0.339742   
     24. A(C  14,C   8,C  15)           90.0000         0.339742   
     25. A(H   0,C   8,C  14)          125.2644         0.311598   
     26. A(C  13,C   8,C  14)           90.0000         0.339742   
     27. A(H   1,C   9,C  14)          125.2644         0.311598   
     28. A(C  14,C   9,C  15)           90.0000         0.339742   
     29. A(C  12,C   9,C  15)           90.0000         0.339742   
     30. A(H   1,C   9,C  12)          125.2644         0.311598   
     31. A(H   1,C   9,C  15)          125.2644         0.311598   
     32. A(C  12,C   9,C  14)           90.0000         0.339742   
     33. A(C  12,C  10,C  13)           90.0000         0.339742   
     34. A(H   2,C  10,C  13)          125.2644         0.311598   
     35. A(C  12,C  10,C  15)           90.0000         0.339742   
     36. A(H   2,C  10,C  15)          125.2644         0.311598   
     37. A(C  13,C  10,C  15)           90.0000         0.339742   
     38. A(H   2,C  10,C  12)          125.2644         0.311598   
     39. A(C  13,C  11,C  14)           90.0000         0.339742   
     40. A(C  12,C  11,C  14)           90.0000         0.339742   
     41. A(H   3,C  11,C  14)          125.2644         0.311598   
     42. A(H   3,C  11,C  12)          125.2644         0.311598   
     43. A(C  12,C  11,C  13)           90.0000         0.339742   
     44. A(H   3,C  11,C  13)          125.2644         0.311598   
     45. A(H   4,C  12,C  11)          125.2644         0.311598   
     46. A(C   9,C  12,C  10)           90.0000         0.339742   
     47. A(C  10,C  12,C  11)           90.0000         0.339742   
     48. A(H   4,C  12,C  10)          125.2644         0.311598   
     49. A(C   9,C  12,C  11)           90.0000         0.339742   
     50. A(H   4,C  12,C   9)          125.2644         0.311598   
     51. A(C   8,C  13,C  10)           90.0000         0.339742   
     52. A(H   5,C  13,C  10)          125.2644         0.311598   
     53. A(H   5,C  13,C   8)          125.2644         0.311598   
     54. A(C  10,C  13,C  11)           90.0000         0.339742   
     55. A(C   8,C  13,C  11)           90.0000         0.339742   
     56. A(H   5,C  13,C  11)          125.2644         0.311598   
     57. A(H   6,C  14,C  11)          125.2644         0.311598   
     58. A(C   8,C  14,C   9)           90.0000         0.339742   
     59. A(H   6,C  14,C   9)          125.2644         0.311598   
     60. A(H   6,C  14,C   8)          125.2644         0.311598   
     61. A(C   9,C  14,C  11)           90.0000         0.339742   
     62. A(C   8,C  14,C  11)           90.0000         0.339742   
     63. A(C   9,C  15,C  10)           90.0000         0.339742   
     64. A(C   8,C  15,C  10)           90.0000         0.339742   
     65. A(H   7,C  15,C  10)          125.2644         0.311598   
     66. A(C   8,C  15,C   9)           90.0000         0.339742   
     67. A(H   7,C  15,C   9)          125.2644         0.311598   
     68. A(H   7,C  15,C   8)          125.2644         0.311598   
     69. D(C  11,C  12,C  10,C  13)      0.0000         0.007770   
     70. D(C   9,C  12,C  10,C  13)     90.0000         0.007770   
     71. D(C   9,C  12,C  11,H   3)    135.0000         0.007770   
     72. D(C  11,C  12,C   9,C  15)     90.0000         0.007770   
     73. D(H   4,C  12,C  11,H   3)      0.0000         0.007770   
     74. D(H   4,C  12,C  10,H   2)      0.0000         0.007770   
     75. D(H   4,C  12,C  10,C  13)   -135.0000         0.007770   
     76. D(C   9,C  12,C  11,C  14)      0.0000         0.007770   
     77. D(C   9,C  12,C  11,C  13)    -90.0000         0.007770   
     78. D(C  10,C  12,C  11,C  13)      0.0000         0.007770   
     79. D(C  11,C  12,C   9,H   1)   -135.0000         0.007770   
     80. D(C  10,C  12,C  11,C  14)     90.0000         0.007770   
     81. D(C  10,C  12,C   9,C  14)    -90.0000         0.007770   
     82. D(C  11,C  12,C   9,C  14)      0.0000         0.007770   
     83. D(C  11,C  12,C  10,H   2)    135.0000         0.007770   
     84. D(H   4,C  12,C  11,C  14)   -135.0000         0.007770   
     85. D(H   4,C  12,C   9,H   1)      0.0000         0.007770   
     86. D(C   9,C  12,C  10,H   2)   -135.0000         0.007770   
     87. D(H   4,C  12,C   9,C  15)   -135.0000         0.007770   
     88. D(C  10,C  12,C  11,H   3)   -135.0000         0.007770   
     89. D(C  10,C  12,C   9,H   1)    135.0000         0.007770   
     90. D(C  10,C  12,C   9,C  15)      0.0000         0.007770   
     91. D(H   4,C  12,C  11,C  13)    135.0000         0.007770   
     92. D(H   4,C  12,C  10,C  15)    135.0000         0.007770   
     93. D(H   4,C  12,C   9,C  14)    135.0000         0.007770   
     94. D(C  11,C  12,C  10,C  15)    -90.0000         0.007770   
     95. D(C   9,C  12,C  10,C  15)      0.0000         0.007770   
     96. D(H   5,C  13,C   8,C  15)    135.0000         0.007770   
     97. D(H   5,C  13,C   8,C  14)   -135.0000         0.007770   
     98. D(C  10,C  13,C   8,H   0)   -135.0000         0.007770   
     99. D(H   5,C  13,C   8,H   0)      0.0000         0.007770   
    100. D(C  10,C  13,C  11,C  14)    -90.0000         0.007770   
    101. D(C  10,C  13,C  11,H   3)    135.0000         0.007770   
    102. D(C   8,C  13,C  11,H   3)   -135.0000         0.007770   
    103. D(H   5,C  13,C  11,C  14)    135.0000         0.007770   
    104. D(C   8,C  13,C  11,C  12)     90.0000         0.007770   
    105. D(C   8,C  13,C  11,C  14)      0.0000         0.007770   
    106. D(C  11,C  13,C  10,C  12)      0.0000         0.007770   
    107. D(C  11,C  13,C  10,H   2)   -135.0000         0.007770   
    108. D(C   8,C  13,C  10,C  15)      0.0000         0.007770   
    109. D(C  10,C  13,C  11,C  12)      0.0000         0.007770   
    110. D(C   8,C  13,C  10,C  12)    -90.0000         0.007770   
    111. D(C   8,C  13,C  10,H   2)    135.0000         0.007770   
    112. D(C  11,C  13,C  10,C  15)     90.0000         0.007770   
    113. D(H   5,C  13,C  11,H   3)      0.0000         0.007770   
    114. D(H   5,C  13,C  11,C  12)   -135.0000         0.007770   
    115. D(C  11,C  13,C   8,C  14)      0.0000         0.007770   
    116. D(H   5,C  13,C  10,H   2)      0.0000         0.007770   
    117. D(C  11,C  13,C   8,C  15)    -90.0000         0.007770   
    118. D(H   5,C  13,C  10,C  15)   -135.0000         0.007770   
    119. D(C  11,C  13,C   8,H   0)    135.0000         0.007770   
    120. D(C  10,C  13,C   8,C  15)      0.0000         0.007770   
    121. D(C  10,C  13,C   8,C  14)     90.0000         0.007770   
    122. D(H   5,C  13,C  10,C  12)    135.0000         0.007770   
    123. D(C  11,C  14,C   8,C  13)      0.0000         0.007770   
    124. D(C  11,C  14,C   8,H   0)   -135.0000         0.007770   
    125. D(C   9,C  14,C   8,C  15)      0.0000         0.007770   
    126. D(C   9,C  14,C   8,C  13)    -90.0000         0.007770   
    127. D(C   9,C  14,C   8,H   0)    135.0000         0.007770   
    128. D(H   6,C  14,C   8,C  15)   -135.0000         0.007770   
    129. D(H   6,C  14,C   8,C  13)    135.0000         0.007770   
    130. D(C  11,C  14,C   8,C  15)     90.0000         0.007770   
    131. D(H   6,C  14,C   8,H   0)      0.0000         0.007770   
    132. D(C   9,C  14,C  11,C  13)     90.0000         0.007770   
    133. D(C   9,C  14,C  11,C  12)      0.0000         0.007770   
    134. D(C   8,C  14,C  11,C  13)      0.0000         0.007770   
    135. D(C   8,C  14,C  11,C  12)    -90.0000         0.007770   
    136. D(C   8,C  14,C  11,H   3)    135.0000         0.007770   
    137. D(H   6,C  14,C  11,C  12)    135.0000         0.007770   
    138. D(H   6,C  14,C  11,H   3)      0.0000         0.007770   
    139. D(C  11,C  14,C   9,C  15)    -90.0000         0.007770   
    140. D(C  11,C  14,C   9,C  12)      0.0000         0.007770   
    141. D(C  11,C  14,C   9,H   1)    135.0000         0.007770   
    142. D(H   6,C  14,C  11,C  13)   -135.0000         0.007770   
    143. D(C   8,C  14,C   9,C  15)      0.0000         0.007770   
    144. D(C   8,C  14,C   9,C  12)     90.0000         0.007770   
    145. D(C   8,C  14,C   9,H   1)   -135.0000         0.007770   
    146. D(C   9,C  14,C  11,H   3)   -135.0000         0.007770   
    147. D(H   6,C  14,C   9,C  15)    135.0000         0.007770   
    148. D(H   6,C  14,C   9,C  12)   -135.0000         0.007770   
    149. D(H   6,C  14,C   9,H   1)      0.0000         0.007770   
    150. D(C   9,C  15,C  10,C  13)    -90.0000         0.007770   
    151. D(C   9,C  15,C  10,H   2)    135.0000         0.007770   
    152. D(C   8,C  15,C  10,C  13)      0.0000         0.007770   
    153. D(C   8,C  15,C  10,C  12)     90.0000         0.007770   
    154. D(H   7,C  15,C  10,C  13)    135.0000         0.007770   
    155. D(H   7,C  15,C  10,C  12)   -135.0000         0.007770   
    156. D(H   7,C  15,C  10,H   2)      0.0000         0.007770   
    157. D(C  10,C  15,C   9,C  14)     90.0000         0.007770   
    158. D(C  10,C  15,C   9,C  12)      0.0000         0.007770   
    159. D(C  10,C  15,C   9,H   1)   -135.0000         0.007770   
    160. D(C   8,C  15,C   9,C  14)      0.0000         0.007770   
    161. D(C   8,C  15,C   9,C  12)    -90.0000         0.007770   
    162. D(C   8,C  15,C   9,H   1)    135.0000         0.007770   
    163. D(H   7,C  15,C   9,C  14)   -135.0000         0.007770   
    164. D(H   7,C  15,C   9,C  12)    135.0000         0.007770   
    165. D(H   7,C  15,C   9,H   1)      0.0000         0.007770   
    166. D(C  10,C  15,C   8,C  14)    -90.0000         0.007770   
    167. D(C  10,C  15,C   8,C  13)      0.0000         0.007770   
    168. D(C  10,C  15,C   8,H   0)    135.0000         0.007770   
    169. D(C   9,C  15,C   8,C  14)      0.0000         0.007770   
    170. D(C   8,C  15,C  10,H   2)   -135.0000         0.007770   
    171. D(C   9,C  15,C   8,C  13)     90.0000         0.007770   
    172. D(C   9,C  15,C   8,H   0)   -135.0000         0.007770   
    173. D(H   7,C  15,C   8,C  14)    135.0000         0.007770   
    174. D(C   9,C  15,C  10,C  12)      0.0000         0.007770   
    175. D(H   7,C  15,C   8,C  13)   -135.0000         0.007770   
    176. D(H   7,C  15,C   8,H   0)      0.0000         0.007770   
    -----------------------------------------------------------------

Number of atoms                         .... 16
Number of degrees of freedom            .... 176

         *************************************************************
         *                GEOMETRY OPTIMIZATION CYCLE   1            *
         *************************************************************
---------------------------------
CARTESIAN COORDINATES (ANGSTROEM)
---------------------------------
  H      1.428713    1.428713    1.428713
  H     -1.428713   -1.428713    1.428713
  H     -1.428713    1.428713   -1.428713
  H      1.428713   -1.428713   -1.428713
  H     -1.428713   -1.428713   -1.428713
  H      1.428713    1.428713   -1.428713
  H      1.428713   -1.428713    1.428713
  H     -1.428713    1.428713    1.428713
  C      0.792056    0.792056    0.792056
  C     -0.792056   -0.792056    0.792056
  C     -0.792056    0.792056   -0.792056
  C      0.792056   -0.792056   -0.792056
  C     -0.792056   -0.792056   -0.792056
  C      0.792056    0.792056   -0.792056
  C      0.792056   -0.792056    0.792056
  C     -0.792056    0.792056    0.792056

----------------------------
CARTESIAN COORDINATES (A.U.)
----------------------------
  NO LB      ZA    FRAG    MASS        X           Y           Z
   0 H     1.0000    0     1.008          2.699877087658010          2.699877087658010          2.699877087658010
   1 H     1.0000    0     1.008         -2.699877087658010         -2.699877087658010          2.699877087658010
   2 H     1.0000    0     1.008         -2.699877087658010          2.699877087658010         -2.699877087658010
   3 H     1.0000    0     1.008          2.699877087658010         -2.699877087658010         -2.699877087658010
   4 H     1.0000    0     1.008         -2.699877087658010         -2.699877087658010         -2.699877087658010
   5 H     1.0000    0     1.008          2.699877087658010          2.699877087658010         -2.699877087658010
   6 H     1.0000    0     1.008          2.699877087658010         -2.699877087658010          2.699877087658010
   7 H     1.0000    0     1.008         -2.699877087658010          2.699877087658010          2.699877087658010
   8 C     6.0000    0    12.011          1.496769300674358          1.496769300674358          1.496769300674358
   9 C     6.0000    0    12.011         -1.496769300674358         -1.496769300674358          1.496769300674358
  10 C     6.0000    0    12.011         -1.496769300674358          1.496769300674358         -1.496769300674358
  11 C     6.0000    0    12.011          1.496769300674358         -1.496769300674358         -1.496769300674358
  12 C     6.0000    0    12.011         -1.496769300674358         -1.496769300674358         -1.496769300674358
  13 C     6.0000    0    12.011          1.496769300674358          1.496769300674358         -1.496769300674358
  14 C     6.0000    0    12.011          1.496769300674358         -1.496769300674358          1.496769300674358
  15 C     6.0000    0    12.011         -1.496769300674358          1.496769300674358          1.496769300674358

--------------------------------
INTERNAL COORDINATES (ANGSTROEM)
--------------------------------
 H      0   0   0   0.000000     0.000     0.000
 H      1   0   0   4.041012     0.000     0.000
 H      1   2   0   4.041012    60.000     0.000
 H      1   2   3   4.041012    60.000   289.471
 H      2   1   3   2.857427    90.000    35.264
 H      1   2   3   2.857427    90.000   324.736
 H      1   2   3   2.857427    45.000   234.736
 H      1   2   3   2.857427    45.000    54.736
 C      1   2   3   1.102723    35.264   324.736
 C      2   1   3   1.102723    35.264    35.264
 C      3   1   2   1.102723    35.264   324.736
 C      4   1   2   1.102723    35.264    35.264
 C      5   2   1   1.102723    54.736     0.000
 C      6   1   2   1.102723    54.736     0.000
 C      7   1   2   1.102723    54.736    45.000
 C      8   1   2   1.102723    54.736   315.000

---------------------------
INTERNAL COORDINATES (A.U.)
---------------------------
 H      0   0   0   0.000000     0.000     0.000
 H      1   0   0   7.636406     0.000     0.000
 H      1   2   0   7.636406    60.000     0.000
 H      1   2   3   7.636406    60.000   289.471
 H      2   1   3   5.399754    90.000    35.264
 H      1   2   3   5.399754    90.000   324.736
 H      1   2   3   5.399754    45.000   234.736
 H      1   2   3   5.399754    45.000    54.736
 C      1   2   3   2.083844    35.264   324.736
 C      2   1   3   2.083844    35.264    35.264
 C      3   1   2   2.083844    35.264   324.736
 C      4   1   2   2.083844    35.264    35.264
 C      5   2   1   2.083844    54.736     0.000
 C      6   1   2   2.083844    54.736     0.000
 C      7   1   2   2.083844    54.736    45.000
 C      8   1   2   2.083844    54.736   315.000

---------------------
BASIS SET INFORMATION
---------------------
There are 2 groups of distinct atoms

 Group   1 Type H   : 4s1p contracted to 2s1p pattern {31/1}
 Group   2 Type C   : 17s4p1d contracted to 3s2p1d pattern {881/31/1}

Atom   0H    basis set group =>   1
Atom   1H    basis set group =>   1
Atom   2H    basis set group =>   1
Atom   3H    basis set group =>   1
Atom   4H    basis set group =>   1
Atom   5H    basis set group =>   1
Atom   6H    basis set group =>   1
Atom   7H    basis set group =>   1
Atom   8C    basis set group =>   2
Atom   9C    basis set group =>   2
Atom  10C    basis set group =>   2
Atom  11C    basis set group =>   2
Atom  12C    basis set group =>   2
Atom  13C    basis set group =>   2
Atom  14C    basis set group =>   2
Atom  15C    basis set group =>   2

INFORMATION: There is an auxiliary basis set but the global RI flag is NOT set

-------------------------------
AUXILIARY BASIS SET INFORMATION
-------------------------------
There are 2 groups of distinct atoms

 Group   1 Type H   : 3s2p1d contracted to 3s2p1d pattern {111/11/1}
 Group   2 Type C   : 7s5p4d2f contracted to 7s5p4d2f pattern {1111111/11111/1111/11}

Atom   0H    basis set group =>   1
Atom   1H    basis set group =>   1
Atom   2H    basis set group =>   1
Atom   3H    basis set group =>   1
Atom   4H    basis set group =>   1
Atom   5H    basis set group =>   1
Atom   6H    basis set group =>   1
Atom   7H    basis set group =>   1
Atom   8C    basis set group =>   2
Atom   9C    basis set group =>   2
Atom  10C    basis set group =>   2
Atom  11C    basis set group =>   2
Atom  12C    basis set group =>   2
Atom  13C    basis set group =>   2
Atom  14C    basis set group =>   2
Atom  15C    basis set group =>   2


           ************************************************************
           *        Program running with 4 parallel MPI-processes     *
           *              working on a common directory               *
           ************************************************************
------------------------------------------------------------------------------
                           ORCA GTO INTEGRAL CALCULATION
------------------------------------------------------------------------------

                         BASIS SET STATISTICS AND STARTUP INFO

 # of primitive gaussian shells          ...  216
 # of primitive gaussian functions       ...  328
 # of contracted shell                   ...   72
 # of contracted basis functions         ...  152
 Highest angular momentum                ...    2
 Maximum contraction depth               ...    8
 Integral package used                   ... LIBINT
 Integral threshhold            Thresh   ...  2.500e-11
 Primitive cut-off              TCut     ...  2.500e-12


                              INTEGRAL EVALUATION

 One electron integrals                  ... done
 Pre-screening matrix                    ... done
 Shell pair data                         ... done (   0.001 sec)

           ************************************************************
           *              Shut down parallel processing               *
           ************************************************************


           ************************************************************
           *        Program running with 4 parallel MPI-processes     *
           *              working on a common directory               *
           ************************************************************
-------------------------------------------------------------------------------
                                 ORCA SCF
-------------------------------------------------------------------------------

------------
SCF SETTINGS
------------
Hamiltonian:
 Ab initio Hamiltonian  Method          .... Hartree-Fock(GTOs)


General Settings:
 Integral files         IntName         .... /home/vladimir/Quantum_Chemistry/ORCA/C8H8/cubane/optimize/CC/DLPNO_CCSDT/cc-pVDZ/./cubane
 Hartree-Fock type      HFTyp           .... RHF
 Total Charge           Charge          ....    0
 Multiplicity           Mult            ....    1
 Number of Electrons    NEL             ....   56
 Basis Dimension        Dim             ....  152
 Nuclear Repulsion      ENuc            ....    363.5643371651 Eh

Convergence Acceleration:
 DIIS                   CNVDIIS         .... on
   Start iteration      DIISMaxIt       ....    12
   Startup error        DIISStart       ....  0.200000
   # of expansion vecs  DIISMaxEq       ....     5
   Bias factor          DIISBfac        ....   1.050
   Max. coefficient     DIISMaxC        ....  10.000
 Newton-Raphson         CNVNR           .... off
 SOSCF                  CNVSOSCF        .... on
   Start iteration      SOSCFMaxIt      ....   150
   Startup grad/error   SOSCFStart      ....  0.003300
 Level Shifting         CNVShift        .... on
   Level shift para.    LevelShift      ....    0.2500
   Turn off err/grad.   ShiftErr        ....    0.0010
 Zerner damping         CNVZerner       .... off
 Static damping         CNVDamp         .... on
   Fraction old density DampFac         ....    0.7000
   Max. Damping (<1)    DampMax         ....    0.9800
   Min. Damping (>=0)   DampMin         ....    0.0000
   Turn off err/grad.   DampErr         ....    0.1000
 Fernandez-Rico         CNVRico         .... off

SCF Procedure:
 Maximum # iterations   MaxIter         ....   125
 SCF integral mode      SCFMode         .... Direct
   Integral package                     .... LIBINT
 Reset frequeny         DirectResetFreq ....    20
 Integral Threshold     Thresh          ....  2.500e-11 Eh
 Primitive CutOff       TCut            ....  2.500e-12 Eh

Convergence Tolerance:
 Convergence Check Mode ConvCheckMode   .... Total+1el-Energy
 Energy Change          TolE            ....  1.000e-08 Eh
 1-El. energy change                    ....  1.000e-05 Eh
 Orbital Gradient       TolG            ....  1.000e-05
 Orbital Rotation angle TolX            ....  1.000e-05
 DIIS Error             TolErr          ....  5.000e-07


Diagonalization of the overlap matrix:
Smallest eigenvalue                        ... 1.891e-04
Time for diagonalization                   ...    0.011 sec
Threshold for overlap eigenvalues          ... 1.000e-08
Number of eigenvalues below threshold      ... 0
Time for construction of square roots      ...    0.001 sec
Total time needed                          ...    0.012 sec

-------------------
DFT GRID GENERATION
-------------------

General Integration Accuracy     IntAcc      ...  4.340
Radial Grid Type                 RadialGrid  ... Gauss-Chebyshev
Angular Grid (max. acc.)         AngularGrid ... Lebedev-110
Angular grid pruning method      GridPruning ... 3 (G Style)
Weight generation scheme         WeightScheme... Becke
Basis function cutoff            BFCut       ...    1.0000e-11
Integration weight cutoff        WCut        ...    1.0000e-14
Grids for H and He will be reduced by one unit

# of grid points (after initial pruning)     ...  19600 (   0.0 sec)
# of grid points (after weights+screening)   ...  17600 (   0.0 sec)
nearest neighbour list constructed           ...    0.0 sec
Grid point re-assignment to atoms done       ...    0.0 sec
Grid point division into batches done        ...    0.0 sec
Reduced shell lists constructed in    0.0 sec

Total number of grid points                  ...    17600
Total number of batches                      ...      288
Average number of points per batch           ...       61
Average number of grid points per atom       ...     1100
Average number of shells per batch           ...    57.84 (80.33%)
Average number of basis functions per batch  ...   120.77 (79.45%)
Average number of large shells per batch     ...    40.95 (70.80%)
Average number of large basis fcns per batch ...    85.58 (70.86%)
Maximum spatial batch extension              ...  16.85, 16.85, 18.13 au
Average spatial batch extension              ...   1.42,  1.41,  1.36 au

Time for grid setup =    0.061 sec

------------------------------
INITIAL GUESS: MODEL POTENTIAL
------------------------------
Loading Hartree-Fock densities                     ... done
Calculating cut-offs                               ... done
Setting up the integral package                    ... done
Initializing the effective Hamiltonian             ... done
Starting the Coulomb interaction                   ... done (   0.0 sec)
Reading the grid                                   ... done
Mapping shells                                     ... done
Starting the XC term evaluation                    ... done (   0.1 sec)
Transforming the Hamiltonian                       ... done (   0.0 sec)
Diagonalizing the Hamiltonian                      ... done (   0.0 sec)
Back transforming the eigenvectors                 ... done (   0.0 sec)
Now organizing SCF variables                       ... done
                      ------------------
                      INITIAL GUESS DONE (   0.2 sec)
                      ------------------
--------------
SCF ITERATIONS
--------------
ITER       Energy         Delta-E        Max-DP      RMS-DP      [F,P]     Damp
               ***  Starting incremental Fock matrix formation  ***
  0   -307.1564619198   0.000000000000 0.02815284  0.00203858  0.0893788 0.7000
  1   -307.2477866736  -0.091324753771 0.02143249  0.00159751  0.0618225 0.7000
                               ***Turning on DIIS***
  2   -307.3004660233  -0.052679349654 0.04488212  0.00357703  0.0461051 0.0000
  3   -306.5816453366   0.718820686690 0.01092596  0.00098198  0.0233483 0.0000
                      *** Initiating the SOSCF procedure ***
                           *** Shutting down DIIS ***
                      *** Re-Reading the Fockian *** 
                      *** Removing any level shift *** 
ITER      Energy       Delta-E        Grad      Rot      Max-DP    RMS-DP
  4   -307.47631934  -0.8946739987  0.003265  0.003265  0.005362  0.000355
               *** Restarting incremental Fock matrix formation ***
  5   -307.41082512   0.0654942131  0.001513  0.001709  0.003012  0.000190
  6   -307.41088255  -0.0000574241  0.000620  0.001124  0.002146  0.000132
  7   -307.41089045  -0.0000079052  0.000264  0.000245  0.000529  0.000033
  8   -307.41089163  -0.0000011804  0.000014  0.000015  0.000016  0.000001
                 **** Energy Check signals convergence ****
              ***Rediagonalizing the Fockian in SOSCF/NRSCF***

               *****************************************************
               *                     SUCCESS                       *
               *           SCF CONVERGED AFTER   9 CYCLES          *
               *****************************************************


----------------
TOTAL SCF ENERGY
----------------

Total Energy       :         -307.41089164 Eh           -8365.07563 eV

Components:
Nuclear Repulsion  :          363.56433717 Eh            9893.08857 eV
Electronic Energy  :         -670.97522880 Eh          -18258.16420 eV

One Electron Energy:        -1136.29619837 Eh          -30920.19151 eV
Two Electron Energy:          465.32096957 Eh           12662.02731 eV

Virial components:
Potential Energy   :         -614.25436695 Eh          -16714.71108 eV
Kinetic Energy     :          306.84347531 Eh            8349.63545 eV
Virial Ratio       :            2.00184920


---------------
SCF CONVERGENCE
---------------

  Last Energy change         ...   -4.6100e-09  Tolerance :   1.0000e-08
  Last MAX-Density change    ...    9.2979e-06  Tolerance :   1.0000e-07
  Last RMS-Density change    ...    4.7554e-07  Tolerance :   5.0000e-09
  Last Orbital Gradient      ...    2.7081e-06  Tolerance :   1.0000e-05
  Last Orbital Rotation      ...    5.9842e-06  Tolerance :   1.0000e-05

             **** THE GBW FILE WAS UPDATED (/home/vladimir/Quantum_Chemistry/ORCA/C8H8/cubane/optimize/CC/DLPNO_CCSDT/cc-pVDZ/./cubane.gbw) ****
             **** DENSITY FILE WAS UPDATED (/home/vladimir/Quantum_Chemistry/ORCA/C8H8/cubane/optimize/CC/DLPNO_CCSDT/cc-pVDZ/./cubane.scfp.tmp) ****
             **** ENERGY FILE WAS UPDATED (/home/vladimir/Quantum_Chemistry/ORCA/C8H8/cubane/optimize/CC/DLPNO_CCSDT/cc-pVDZ/./cubane.en.tmp) ****
----------------
ORBITAL ENERGIES
----------------

  NO   OCC          E(Eh)            E(eV) 
   0   2.0000     -11.231710      -305.6304 
   1   2.0000     -11.231250      -305.6178 
   2   2.0000     -11.231250      -305.6178 
   3   2.0000     -11.231250      -305.6178 
   4   2.0000     -11.230781      -305.6051 
   5   2.0000     -11.230781      -305.6051 
   6   2.0000     -11.230781      -305.6051 
   7   2.0000     -11.230294      -305.5918 
   8   2.0000      -1.233311       -33.5601 
   9   2.0000      -0.973259       -26.4837 
  10   2.0000      -0.973259       -26.4837 
  11   2.0000      -0.973259       -26.4837 
  12   2.0000      -0.765387       -20.8272 
  13   2.0000      -0.765387       -20.8272 
  14   2.0000      -0.765387       -20.8272 
  15   2.0000      -0.702184       -19.1074 
  16   2.0000      -0.639723       -17.4077 
  17   2.0000      -0.575391       -15.6572 
  18   2.0000      -0.575391       -15.6572 
  19   2.0000      -0.575391       -15.6572 
  20   2.0000      -0.572062       -15.5666 
  21   2.0000      -0.572062       -15.5666 
  22   2.0000      -0.388307       -10.5664 
  23   2.0000      -0.388307       -10.5664 
  24   2.0000      -0.388307       -10.5664 
  25   2.0000      -0.384219       -10.4551 
  26   2.0000      -0.384219       -10.4551 
  27   2.0000      -0.384219       -10.4551 
  28   0.0000       0.181693         4.9441 
  29   0.0000       0.201836         5.4922 
  30   0.0000       0.201836         5.4922 
  31   0.0000       0.201836         5.4922 
  32   0.0000       0.252899         6.8817 
  33   0.0000       0.252899         6.8817 
  34   0.0000       0.252899         6.8817 
  35   0.0000       0.256454         6.9785 
  36   0.0000       0.256454         6.9785 
  37   0.0000       0.256454         6.9785 
  38   0.0000       0.263178         7.1614 
  39   0.0000       0.366378         9.9696 
  40   0.0000       0.366378         9.9696 
  41   0.0000       0.366378         9.9696 
  42   0.0000       0.445245        12.1157 
  43   0.0000       0.445245        12.1157 
  44   0.0000       0.445245        12.1157 
  45   0.0000       0.493733        13.4351 
  46   0.0000       0.516552        14.0561 
  47   0.0000       0.516552        14.0561 
  48   0.0000       0.618719        16.8362 
  49   0.0000       0.618719        16.8362 
  50   0.0000       0.665914        18.1205 
  51   0.0000       0.665914        18.1205 
  52   0.0000       0.665914        18.1205 
  53   0.0000       0.683425        18.5969 
  54   0.0000       0.683425        18.5969 
  55   0.0000       0.683425        18.5969 
  56   0.0000       0.686384        18.6775 
  57   0.0000       0.787536        21.4299 
  58   0.0000       0.787536        21.4299 
  59   0.0000       0.787536        21.4299 
  60   0.0000       0.796402        21.6712 
  61   0.0000       0.796402        21.6712 
  62   0.0000       0.796402        21.6712 
  63   0.0000       0.861600        23.4453 
  64   0.0000       0.861600        23.4453 
  65   0.0000       0.861600        23.4453 
  66   0.0000       0.874486        23.7960 
  67   0.0000       0.874486        23.7960 
  68   0.0000       0.874486        23.7960 
  69   0.0000       0.918903        25.0046 
  70   0.0000       0.942397        25.6439 
  71   0.0000       0.942397        25.6439 
  72   0.0000       0.946675        25.7603 
  73   0.0000       0.946675        25.7603 
  74   0.0000       0.995830        27.0979 
  75   0.0000       0.995830        27.0979 
  76   0.0000       0.995830        27.0979 
  77   0.0000       1.031756        28.0755 
  78   0.0000       1.255410        34.1614 
  79   0.0000       1.255410        34.1614 
  80   0.0000       1.255410        34.1614 
  81   0.0000       1.279574        34.8190 
  82   0.0000       1.279574        34.8190 
  83   0.0000       1.279574        34.8190 
  84   0.0000       1.326205        36.0879 
  85   0.0000       1.345069        36.6012 
  86   0.0000       1.578896        42.9640 
  87   0.0000       1.578896        42.9640 
  88   0.0000       1.578896        42.9640 
  89   0.0000       1.606606        43.7180 
  90   0.0000       1.606606        43.7180 
  91   0.0000       1.606606        43.7180 
  92   0.0000       1.629128        44.3308 
  93   0.0000       1.629128        44.3308 
  94   0.0000       1.706589        46.4386 
  95   0.0000       1.706589        46.4386 
  96   0.0000       1.706589        46.4386 
  97   0.0000       1.760283        47.8997 
  98   0.0000       1.760283        47.8997 
  99   0.0000       1.760283        47.8997 
 100   0.0000       1.874117        50.9973 
 101   0.0000       1.874117        50.9973 
 102   0.0000       1.874117        50.9973 
 103   0.0000       1.930929        52.5433 
 104   0.0000       1.930929        52.5433 
 105   0.0000       1.930929        52.5433 
 106   0.0000       1.958580        53.2957 
 107   0.0000       1.958580        53.2957 
 108   0.0000       1.960079        53.3365 
 109   0.0000       1.968736        53.5720 
 110   0.0000       1.968736        53.5720 
 111   0.0000       1.968736        53.5720 
 112   0.0000       2.080035        56.6006 
 113   0.0000       2.080035        56.6006 
 114   0.0000       2.165000        58.9127 
 115   0.0000       2.165000        58.9127 
 116   0.0000       2.165000        58.9127 
 117   0.0000       2.188301        59.5467 
 118   0.0000       2.188301        59.5467 
 119   0.0000       2.188301        59.5467 
 120   0.0000       2.200295        59.8731 
 121   0.0000       2.200295        59.8731 
 122   0.0000       2.200295        59.8731 
 123   0.0000       2.263533        61.5939 
 124   0.0000       2.263533        61.5939 
 125   0.0000       2.263533        61.5939 
 126   0.0000       2.344202        63.7890 
 127   0.0000       2.344202        63.7890 
 128   0.0000       2.344202        63.7890 
 129   0.0000       2.370348        64.5005 
 130   0.0000       2.384106        64.8748 
 131   0.0000       2.384106        64.8748 
 132   0.0000       2.384106        64.8748 
 133   0.0000       2.441168        66.4276 
 134   0.0000       2.441168        66.4276 
 135   0.0000       2.556847        69.5753 
 136   0.0000       2.556847        69.5753 
 137   0.0000       2.556847        69.5753 
 138   0.0000       2.700008        73.4710 
 139   0.0000       2.762095        75.1604 
 140   0.0000       2.762095        75.1604 
 141   0.0000       2.762095        75.1604 
 142   0.0000       2.797073        76.1122 
 143   0.0000       2.797073        76.1122 
 144   0.0000       2.824288        76.8528 
 145   0.0000       2.824288        76.8528 
 146   0.0000       2.824288        76.8528 
 147   0.0000       3.144713        85.5720 
 148   0.0000       3.385326        92.1194 
 149   0.0000       3.385326        92.1194 
 150   0.0000       3.385326        92.1194 
 151   0.0000       4.276914       116.3807 

                    ********************************
                    * MULLIKEN POPULATION ANALYSIS *
                    ********************************

-----------------------
MULLIKEN ATOMIC CHARGES
-----------------------
   0 H :    0.002330
   1 H :    0.002330
   2 H :    0.002330
   3 H :    0.002330
   4 H :    0.002330
   5 H :    0.002330
   6 H :    0.002330
   7 H :    0.002330
   8 C :   -0.002330
   9 C :   -0.002330
  10 C :   -0.002330
  11 C :   -0.002330
  12 C :   -0.002330
  13 C :   -0.002330
  14 C :   -0.002330
  15 C :   -0.002330
Sum of atomic charges:   -0.0000000

--------------------------------
MULLIKEN REDUCED ORBITAL CHARGES
--------------------------------
  0 H s       :     0.967512  s :     0.967512
      pz      :     0.010053  p :     0.030158
      px      :     0.010053
      py      :     0.010053
  1 H s       :     0.967512  s :     0.967512
      pz      :     0.010053  p :     0.030158
      px      :     0.010053
      py      :     0.010053
  2 H s       :     0.967512  s :     0.967512
      pz      :     0.010053  p :     0.030158
      px      :     0.010053
      py      :     0.010053
  3 H s       :     0.967512  s :     0.967512
      pz      :     0.010053  p :     0.030158
      px      :     0.010053
      py      :     0.010053
  4 H s       :     0.967512  s :     0.967512
      pz      :     0.010053  p :     0.030158
      px      :     0.010053
      py      :     0.010053
  5 H s       :     0.967512  s :     0.967512
      pz      :     0.010053  p :     0.030158
      px      :     0.010053
      py      :     0.010053
  6 H s       :     0.967512  s :     0.967512
      pz      :     0.010053  p :     0.030158
      px      :     0.010053
      py      :     0.010053
  7 H s       :     0.967512  s :     0.967512
      pz      :     0.010053  p :     0.030158
      px      :     0.010053
      py      :     0.010053
  8 C s       :     3.209729  s :     3.209729
      pz      :     0.900162  p :     2.700486
      px      :     0.900162
      py      :     0.900162
      dz2     :     0.026756  d :     0.092116
      dxz     :     0.012868
      dyz     :     0.012868
      dx2y2   :     0.026756
      dxy     :     0.012868
  9 C s       :     3.209729  s :     3.209729
      pz      :     0.900162  p :     2.700486
      px      :     0.900162
      py      :     0.900162
      dz2     :     0.026756  d :     0.092116
      dxz     :     0.012868
      dyz     :     0.012868
      dx2y2   :     0.026756
      dxy     :     0.012868
 10 C s       :     3.209729  s :     3.209729
      pz      :     0.900162  p :     2.700486
      px      :     0.900162
      py      :     0.900162
      dz2     :     0.026756  d :     0.092116
      dxz     :     0.012868
      dyz     :     0.012868
      dx2y2   :     0.026756
      dxy     :     0.012868
 11 C s       :     3.209729  s :     3.209729
      pz      :     0.900162  p :     2.700486
      px      :     0.900162
      py      :     0.900162
      dz2     :     0.026756  d :     0.092116
      dxz     :     0.012868
      dyz     :     0.012868
      dx2y2   :     0.026756
      dxy     :     0.012868
 12 C s       :     3.209729  s :     3.209729
      pz      :     0.900162  p :     2.700486
      px      :     0.900162
      py      :     0.900162
      dz2     :     0.026756  d :     0.092116
      dxz     :     0.012868
      dyz     :     0.012868
      dx2y2   :     0.026756
      dxy     :     0.012868
 13 C s       :     3.209729  s :     3.209729
      pz      :     0.900162  p :     2.700486
      px      :     0.900162
      py      :     0.900162
      dz2     :     0.026756  d :     0.092116
      dxz     :     0.012868
      dyz     :     0.012868
      dx2y2   :     0.026756
      dxy     :     0.012868
 14 C s       :     3.209729  s :     3.209729
      pz      :     0.900162  p :     2.700486
      px      :     0.900162
      py      :     0.900162
      dz2     :     0.026756  d :     0.092116
      dxz     :     0.012868
      dyz     :     0.012868
      dx2y2   :     0.026756
      dxy     :     0.012868
 15 C s       :     3.209729  s :     3.209729
      pz      :     0.900162  p :     2.700486
      px      :     0.900162
      py      :     0.900162
      dz2     :     0.026756  d :     0.092116
      dxz     :     0.012868
      dyz     :     0.012868
      dx2y2   :     0.026756
      dxy     :     0.012868


                     *******************************
                     * LOEWDIN POPULATION ANALYSIS *
                     *******************************

----------------------
LOEWDIN ATOMIC CHARGES
----------------------
   0 H :   -0.000709
   1 H :   -0.000709
   2 H :   -0.000709
   3 H :   -0.000709
   4 H :   -0.000709
   5 H :   -0.000709
   6 H :   -0.000709
   7 H :   -0.000709
   8 C :    0.000709
   9 C :    0.000709
  10 C :    0.000709
  11 C :    0.000709
  12 C :    0.000709
  13 C :    0.000709
  14 C :    0.000709
  15 C :    0.000709

-------------------------------
LOEWDIN REDUCED ORBITAL CHARGES
-------------------------------
  0 H s       :     0.916571  s :     0.916571
      pz      :     0.028046  p :     0.084138
      px      :     0.028046
      py      :     0.028046
  1 H s       :     0.916571  s :     0.916571
      pz      :     0.028046  p :     0.084138
      px      :     0.028046
      py      :     0.028046
  2 H s       :     0.916571  s :     0.916571
      pz      :     0.028046  p :     0.084138
      px      :     0.028046
      py      :     0.028046
  3 H s       :     0.916571  s :     0.916571
      pz      :     0.028046  p :     0.084138
      px      :     0.028046
      py      :     0.028046
  4 H s       :     0.916571  s :     0.916571
      pz      :     0.028046  p :     0.084138
      px      :     0.028046
      py      :     0.028046
  5 H s       :     0.916571  s :     0.916571
      pz      :     0.028046  p :     0.084138
      px      :     0.028046
      py      :     0.028046
  6 H s       :     0.916571  s :     0.916571
      pz      :     0.028046  p :     0.084138
      px      :     0.028046
      py      :     0.028046
  7 H s       :     0.916571  s :     0.916571
      pz      :     0.028046  p :     0.084138
      px      :     0.028046
      py      :     0.028046
  8 C s       :     2.829550  s :     2.829550
      pz      :     0.982255  p :     2.946764
      px      :     0.982255
      py      :     0.982255
      dz2     :     0.057701  d :     0.222977
      dxz     :     0.035858
      dyz     :     0.035858
      dx2y2   :     0.057701
      dxy     :     0.035858
  9 C s       :     2.829550  s :     2.829550
      pz      :     0.982255  p :     2.946764
      px      :     0.982255
      py      :     0.982255
      dz2     :     0.057701  d :     0.222977
      dxz     :     0.035858
      dyz     :     0.035858
      dx2y2   :     0.057701
      dxy     :     0.035858
 10 C s       :     2.829550  s :     2.829550
      pz      :     0.982255  p :     2.946764
      px      :     0.982255
      py      :     0.982255
      dz2     :     0.057701  d :     0.222977
      dxz     :     0.035858
      dyz     :     0.035858
      dx2y2   :     0.057701
      dxy     :     0.035858
 11 C s       :     2.829550  s :     2.829550
      pz      :     0.982255  p :     2.946764
      px      :     0.982255
      py      :     0.982255
      dz2     :     0.057701  d :     0.222977
      dxz     :     0.035858
      dyz     :     0.035858
      dx2y2   :     0.057701
      dxy     :     0.035858
 12 C s       :     2.829550  s :     2.829550
      pz      :     0.982255  p :     2.946764
      px      :     0.982255
      py      :     0.982255
      dz2     :     0.057701  d :     0.222977
      dxz     :     0.035858
      dyz     :     0.035858
      dx2y2   :     0.057701
      dxy     :     0.035858
 13 C s       :     2.829550  s :     2.829550
      pz      :     0.982255  p :     2.946764
      px      :     0.982255
      py      :     0.982255
      dz2     :     0.057701  d :     0.222977
      dxz     :     0.035858
      dyz     :     0.035858
      dx2y2   :     0.057701
      dxy     :     0.035858
 14 C s       :     2.829550  s :     2.829550
      pz      :     0.982255  p :     2.946764
      px      :     0.982255
      py      :     0.982255
      dz2     :     0.057701  d :     0.222977
      dxz     :     0.035858
      dyz     :     0.035858
      dx2y2   :     0.057701
      dxy     :     0.035858
 15 C s       :     2.829550  s :     2.829550
      pz      :     0.982255  p :     2.946764
      px      :     0.982255
      py      :     0.982255
      dz2     :     0.057701  d :     0.222977
      dxz     :     0.035858
      dyz     :     0.035858
      dx2y2   :     0.057701
      dxy     :     0.035858


                      *****************************
                      * MAYER POPULATION ANALYSIS *
                      *****************************

  NA   - Mulliken gross atomic population
  ZA   - Total nuclear charge
  QA   - Mulliken gross atomic charge
  VA   - Mayer's total valence
  BVA  - Mayer's bonded valence
  FA   - Mayer's free valence

  ATOM       NA         ZA         QA         VA         BVA        FA
  0 H      0.9977     1.0000     0.0023     0.9939     0.9939    -0.0000
  1 H      0.9977     1.0000     0.0023     0.9939     0.9939    -0.0000
  2 H      0.9977     1.0000     0.0023     0.9939     0.9939    -0.0000
  3 H      0.9977     1.0000     0.0023     0.9939     0.9939     0.0000
  4 H      0.9977     1.0000     0.0023     0.9939     0.9939    -0.0000
  5 H      0.9977     1.0000     0.0023     0.9939     0.9939    -0.0000
  6 H      0.9977     1.0000     0.0023     0.9939     0.9939     0.0000
  7 H      0.9977     1.0000     0.0023     0.9939     0.9939     0.0000
  8 C      6.0023     6.0000    -0.0023     3.8006     3.8006    -0.0000
  9 C      6.0023     6.0000    -0.0023     3.8006     3.8006    -0.0000
 10 C      6.0023     6.0000    -0.0023     3.8006     3.8006    -0.0000
 11 C      6.0023     6.0000    -0.0023     3.8006     3.8006     0.0000
 12 C      6.0023     6.0000    -0.0023     3.8006     3.8006     0.0000
 13 C      6.0023     6.0000    -0.0023     3.8006     3.8006     0.0000
 14 C      6.0023     6.0000    -0.0023     3.8006     3.8006     0.0000
 15 C      6.0023     6.0000    -0.0023     3.8006     3.8006    -0.0000

  Mayer bond orders larger than 0.1
B(  0-H ,  8-C ) :   0.9941 B(  1-H ,  9-C ) :   0.9941 B(  2-H , 10-C ) :   0.9941 
B(  3-H , 11-C ) :   0.9941 B(  4-H , 12-C ) :   0.9941 B(  5-H , 13-C ) :   0.9941 
B(  6-H , 14-C ) :   0.9941 B(  7-H , 15-C ) :   0.9941 B(  8-C , 13-C ) :   0.9730 
B(  8-C , 14-C ) :   0.9730 B(  8-C , 15-C ) :   0.9730 B(  9-C , 12-C ) :   0.9730 
B(  9-C , 14-C ) :   0.9730 B(  9-C , 15-C ) :   0.9730 B( 10-C , 12-C ) :   0.9730 
B( 10-C , 13-C ) :   0.9730 B( 10-C , 15-C ) :   0.9730 B( 11-C , 12-C ) :   0.9730 
B( 11-C , 13-C ) :   0.9730 B( 11-C , 14-C ) :   0.9730 

-------
TIMINGS
-------

Total SCF time: 0 days 0 hours 0 min 17 sec 

Total time                  ....      17.328 sec
Sum of individual times     ....      17.606 sec  (101.6%)

Fock matrix formation       ....      17.243 sec  ( 99.5%)
Diagonalization             ....       0.038 sec  (  0.2%)
Density matrix formation    ....       0.002 sec  (  0.0%)
Population analysis         ....       0.010 sec  (  0.1%)
Initial guess               ....       0.234 sec  (  1.3%)
Orbital Transformation      ....       0.000 sec  (  0.0%)
Orbital Orthonormalization  ....       0.000 sec  (  0.0%)
DIIS solution               ....       0.008 sec  (  0.0%)
SOSCF solution              ....       0.010 sec  (  0.1%)
           ************************************************************
           *              Shut down parallel processing               *
           ************************************************************


           ************************************************************
           *        Program running with 4 parallel MPI-processes     *
           *              working on a common directory               *
           ************************************************************
-------------------------------------------------------------------------------
                              ORCA-MATRIX DRIVEN CI
-------------------------------------------------------------------------------


Wavefunction type
-----------------
Correlation treatment                      ...      CCSD     
Single excitations                         ... ON
Orbital optimization                       ... OFF
Calculation of Z vector                    ... OFF
Calculation of Brueckner orbitals          ... OFF
Perturbative triple excitations            ... ON
Calculation of F12 correction              ... OFF
Frozen core treatment                      ... chemical core (16 el)
Reference Wavefunction                     ... RHF
  Internal Orbitals:     8 ...   27 ( 20 MO's/ 40 electrons)
  Virtual  Orbitals:    28 ...  151 (124 MO's              )
Number of AO's                             ...    152
Number of electrons                        ...     56
Number of correlated electrons             ...     40

Algorithmic settings
--------------------
Integral transformation                    ... All integrals via the RI transformation
K(C) Formation                             ... RI-DLPNO
   PNO-Integral Storage                    ... ON DISK
   PNO occupation number cut-off           ... 3.330e-07
   Singles PNO occupation number cut-off   ... 9.990e-09
   PNO Mulliken prescreening cut-off       ... 1.000e-03
   Domain cut-off (Mulliken population)    ... 1.000e-03
   PNO Normalization                       ...    1
Maximum number of iterations               ...        50
Convergence tolerance (max. residuum)      ... 1.000e-05
Level shift for amplitude update           ... 2.000e-01
Maximum number of DIIS vectors             ...         7
DIIS turned on at iteration                ...         0
Damping before turning on DIIS             ...     0.500
Damping after turning on DIIS              ...     0.000
Pair specific amplitude update             ... OFF
Natural orbital iterations                 ... OFF
Perturbative natural orbital generation    ... OFF
Printlevel                                 ... 2

Memory handling:
----------------
Maximum memory for working arrays          ...   1000 MB
Data storage in matrix containers          ... UNCOMPRESSED
Data type for integral storage             ... DOUBLE
In-Core Storage of quantities:
   Amplitudes+Sigma Vector      ... NO
   J+K operators                ... NO
   DIIS vectors                 ... NO
   3-external integrals         ... NO
   4-external integrals         ... NO

Localization treatment:
-----------------------
Localization option                        ...    1
Neglect threshold for strong pairs         ... 1.000e-04 Eh
Prescreening threshold for very weak pairs ... 1.000e-06 Eh

Initializing the integral package          ... done
Localizing the valence orbitals
------------------------------------------------------------------------------
                           ORCA ORBITAL LOCALIZATION
------------------------------------------------------------------------------

Input orbitals are from        ... /home/vladimir/Quantum_Chemistry/ORCA/C8H8/cubane/optimize/CC/DLPNO_CCSDT/cc-pVDZ/./cubane.gbw
Output orbitals are to         ... /home/vladimir/Quantum_Chemistry/ORCA/C8H8/cubane/optimize/CC/DLPNO_CCSDT/cc-pVDZ/./cubane.loc
Max. number of iterations      ... 128
Convergence tolerance          ... 1.000e-06
Treshold for strong local MOs  ... 9.500e-01
Treshold for bond MOs          ... 8.500e-01
Operator                       ... 0
Orbital range for localization ... 8 to 27
Localization criterion         ... FOSTER-BOYS
Doing the dipole integrals     ... o.k.
Entering Jacobi type localization:
Initial value of the localization sum :     0.000000
ITERATION   0 : L=  178.4000993744 DL=  1.78e+02 (MAX-T)=  45.000 
ITERATION   1 : L=  194.8489819757 DL=  1.64e+01 (MAX-T)=  44.070 
ITERATION   2 : L=  194.9509104649 DL=  1.02e-01 (MAX-T)=   4.827 
ITERATION   3 : L=  194.9509240768 DL=  1.36e-05 (MAX-T)=   0.021 
ITERATION   4 : L=  194.9509241153 DL=  3.85e-08 (MAX-T)=   0.002 
LOCALIZATION SUM CONVERGED

----------------------------------------
LOCALIZED MOLECULAR ORBITAL COMPOSITIONS
----------------------------------------

The Mulliken populations for each LMO on each atom are computed
The LMO`s will be ordered according to atom index and type
  (A) Strongly localized MO`s have populations of >=0.950 on one atom
  (B) Two center bond orbitals have populations of >=0.850 on two atoms
  (C) Other MO`s are considered to be `delocalized`

FOUND  -   0 strongly local MO`s
       -  20 two center bond MO`s
       -   0 significantly delocalized MO`s

Bond-like localized orbitals:
MO  27:  15C  -   0.539072  and  10C  -   0.539072
MO  26:  15C  -   0.539072  and   9C  -   0.539072
MO  25:  15C  -   0.539072  and   8C  -   0.539072
MO  24:  15C  -   0.510959  and   7H  -   0.506905
MO  23:  14C  -   0.539072  and  11C  -   0.539072
MO  22:  14C  -   0.539072  and   9C  -   0.539072
MO  21:  14C  -   0.539072  and   8C  -   0.539072
MO  20:  14C  -   0.510959  and   6H  -   0.506905
MO  19:  13C  -   0.539072  and  11C  -   0.539072
MO  18:  13C  -   0.539072  and  10C  -   0.539072
MO  17:  13C  -   0.539072  and   8C  -   0.539072
MO  16:  13C  -   0.510959  and   5H  -   0.506905
MO  15:  12C  -   0.539072  and  11C  -   0.539072
MO  14:  12C  -   0.539072  and  10C  -   0.539072
MO  13:  12C  -   0.539072  and   9C  -   0.539072
MO  12:  12C  -   0.510959  and   4H  -   0.506905
MO  11:  11C  -   0.510959  and   3H  -   0.506905
MO  10:  10C  -   0.510959  and   2H  -   0.506905
MO   9:   9C  -   0.510959  and   1H  -   0.506905
MO   8:   8C  -   0.510959  and   0H  -   0.506905
Localized MO's were stored in: /home/vladimir/Quantum_Chemistry/ORCA/C8H8/cubane/optimize/CC/DLPNO_CCSDT/cc-pVDZ/./cubane.loc
Localizing the core orbitals
Warning: internal orbitals are localized - no re-canonicalization of internal orbitals
Time needed for Fock operator              ...            2.713 sec
Reference energy                           ...   -307.410891634

--------------
DLPNO SETTINGS
--------------

TCutMKN:           1.000e-03
TCutPAO:           1.000e-03
TCutPNO:           3.330e-07
TCutPNOSingles:    9.990e-09
TCutPAOExt:        1.000e-01
TCutPairs:         1.000e-04
TCutPre:           1.000e-06
TCutOSV:           1.000e-06
TCutC:             1.000e-04
LocalTrafoType:    1
TCutTNO:           1.000e-07
TCutMP2Pairs:      1.000e-05
TCutMKNStrong:     1.000e-02
TCutMKNWeak:       1.000e-01
NTCutTNO:          1

--------------------------

-----------------
RI-TRANSFORMATION (AUX index driven)
-----------------

Dimension of the orbital-basis                ... 152
Dimension of the aux-basis                    ... 560
Transformation of internal MOs                ...    8-  27
Transformation of internal MOs/PAOs           ...    8-  27 to   28- 179
Transformation of internal MOs/VMOs           ...    8-  27 to   28- 152
Orthogonalization of internal MOs/PAOs        ...    8-  27 to   28- 179
Transformation of PAOs                        ...   28- 179
Orthogonalization of PAOs                     ...   28- 179
Number Format for Storage                      ... Double (8 Byte)
Integral mode                                  ... Direct

First Phase: integral generation and transformation of MO indices
  Aux angular momentum 0               ... done (    0.063 sec)
  Aux angular momentum 1               ... done (    0.056 sec)
  Aux angular momentum 2               ... done (    0.058 sec)
  Aux angular momentum 3               ... done (    0.033 sec)
Closing buffer VIJ    ( 0.00 GB; CompressionRatio= 1.89)
Closing buffer VIAPAO ( 0.00 GB; CompressionRatio= 1.00)
Closing buffer VIAVMO ( 0.00 GB; CompressionRatio= 1.00)
Closing buffer VABPAO ( 0.01 GB; CompressionRatio= 1.99)
  Phase 1 completed in     0.271 sec

--------------------
RI-METRIC GENERATION
--------------------

Time for V**-1/2 generation:     0.083 sec
Second Phase: resorting and orthogonalising VIJ

IJ-Resorting
Closing buffer IJ_V ( 0.00 GB; CompressionRatio= 1.00)
Closing buffer IJ_K ( 0.00 GB; CompressionRatio= 1.00)
(ij|v) resorting                              ... done (    0.012 sec)

IA-Resorting
Closing buffer IAVPAO ( 0.00 GB; CompressionRatio= 1.00)
Closing buffer IAKPAO ( 0.00 GB; CompressionRatio= 1.00)
(i|av) resorting and orthogonalization        ... done (    0.035 sec)

IA(MO)-Resorting
Closing buffer IAVMO ( 0.00 GB; CompressionRatio= 1.00)
(ia|v)MO resorting                            ... done (    0.030 sec)
Closing buffer AKBPAO ( 0.10 GB; CompressionRatio= 1.00)
(a|vb)                                        ... done (    0.259 sec)

  Phase 2 completed in     0.457 sec
RI-Integral transformation completed in     0.770 sec

Making orbital specific virtuals              ... done (   0.0 sec, average of   21 OSVs/MO)
--------------------------------
INITIAL GUESS AND PNO GENERATION
--------------------------------
PNO generation with semilocal MP2, Starting Loop over 210 pairs
   .... Finished loop over pairs
Making pair pair interaction lists            ... Prescreening for VAB generation - part 1: Average nr. of PAO atoms per Aux atom:   16.0
Prescreening for VAB generation - part 2: Average nr. of PAO atoms per Aux atom:   16.0
done

                       ===========================
                        206 OF  210 PAIRS ARE KEPT
                       ===========================

Total time spent in the initial guess                 ...     3.538 sec
SL-PNO-MP2 correlation energy (all kept pairs)        ...      -1.028725963793 Eh
sum of pair energies estimated for screened out pairs ...       0.000000000000 Eh
sum of MP2 pair energies for pairs that were not kept ...      -0.000256487447 Eh
sum of PNO error estimates for the kept pairs         ...      -0.001613433740 Eh
                                                          --------------------
sum of all corrections                                         -0.001869921187
Initial total correlation energy                               -1.030595884980
-------------------------------------
RI-(ij|mn) TRANSFORMATION
-------------------------------------

Total memory for most expensive pair       49.680 MB

Ibatch:  1 (of  2)
Starting 2-4 index PAOEXT integral generation ... done

Ibatch:  2 (of  2)
Starting 2-4 index PAOEXT integral generation ... done
-------------------------------------
RI-(im|jn) TRANSFORMATION
-------------------------------------


RI-(im|jn) and -(ij|mn) transformation finished.

Timings:
Total EXT                                  ...          3.895 sec
Size of the IJMN file                      ...        36 MB
Size of the IMJN file                      ...        36 MB

Precomputing pair/pair interactions        ... done (    0.598 sec)
Size of the J+K file                       ... 15 MB
---------------------
RI-PNO TRANSFORMATION
---------------------

Total Number of PNOs                   ...  4900
Average number of PNOs per pair        ...    23
   #pairs with  1 -  5 PNOs   :    0
   #pairs with  6 - 10 PNOs   :    0
   #pairs with 11 - 15 PNOs   :   24
   #pairs with 16 - 20 PNOs   :   26
   #pairs with 21 - 25 PNOs   :   84
   #pairs with 26 - 30 PNOs   :   48
   #pairs with 31 - 35 PNOs   :   24
   #pairs with 36 - 40 PNOs   :    0
   #pairs with 41 - 45 PNOs   :    0
   #pairs with 46 - 50 PNOs   :    0
   #pairs with >50     PNOs   :    0

Generation of (ij|ab)[P] integrals            ... on
Generation of (ia|bc)[P],(ja|bc)[P] integrals ... on
Storage of 3 and 4 external integrals         ... on
Generation of ALL (ka|bc)[P] integrals        ... on
Include core orbitals in trafo                ... off
Keep RI integrals in memory                   ... off

Ibatch:  1 (of  1)
Starting 2-4 index PNO integral generation ... done

Timings:
Total PNO integral transformation time     ...          6.186 sec
Size of the 3-external file                ...        25 MB
Size of the 4-external file                ...        88 MB
Size of the IKJL file                      ...         0 MB
Size of the all 3-external file            ...       253 MB
Size of the 1-external file                ...         2 MB

Making pair/pair overlap matrices          ... done (    1.380 sec)
Size of the pair overlap file              ... 140 MB
Redoing the guess amplitudes               ... done (    0.001 sec)

-------------------------
FINAL STARTUP INFORMATION
-------------------------

E(0)                                       ...   -307.410891634
E(SL-MP2)                                  ...     -1.028725964
Initial E(tot)                             ...   -308.439617597
<T|T>                                      ...      0.350426244
Number of pairs included                   ... 206
Total number of pairs                      ... 210

------------------------------------------------
                  RHF COUPLED CLUSTER ITERATIONS
------------------------------------------------

Number of PNO amplitudes to be optimized   ...       125880
Number of non-PNO amplitudes               ...      3167456
Untruncated number of regular amplitudes   ...      3228960

Iter       E(tot)           E(Corr)          Delta-E          Residual     Time
  0   -308.439639057     -1.026877502      0.001848461      0.012150459    2.26
                           *** Turning on DIIS ***
  1   -308.498388670     -1.085627115     -0.058749612      0.007152301    4.59
  2   -308.533188734     -1.120427179     -0.034800065      0.002348317    3.95
  3   -308.539841452     -1.127079897     -0.006652718      0.001078215    3.96
  4   -308.541126841     -1.128365286     -0.001285389      0.000241097    4.03
  5   -308.541296262     -1.128534708     -0.000169421      0.000054085    4.05
  6   -308.541324661     -1.128563107     -0.000028399      0.000017923    3.99
  7   -308.541323811     -1.128562257      0.000000850      0.000005930    3.93
               --- The Coupled-Cluster iterations have converged ---

----------------------
COUPLED CLUSTER ENERGY
----------------------

E(0)                                       ...   -307.410891634
E(CORR)(strong-pairs)                      ...     -1.128562257
E(CORR)(weak-pairs)                        ...     -0.001869921
E(CORR)(corrected)                         ...     -1.130432178
E(TOT)                                     ...   -308.541323811
Singles Norm <S|S>**1/2                    ...      0.048201718
T1 diagnostic                              ...      0.007621361

------------------
LARGEST AMPLITUDES
------------------
  14-> 28  14-> 28       0.043508
  22-> 28  22-> 28       0.043508
  13-> 28  13-> 28       0.043508
  17-> 28  17-> 28       0.043508
  23-> 28  23-> 28       0.043508
  27-> 28  27-> 28       0.043508
  18-> 28  18-> 28       0.043508
  19-> 28  19-> 28       0.043508
  15-> 28  15-> 28       0.043508
  26-> 28  26-> 28       0.043508
  21-> 28  21-> 28       0.043508
  25-> 28  25-> 28       0.043508
  11-> 28  11-> 28       0.037908
  24-> 28  24-> 28       0.037908
   8-> 28   8-> 28       0.037908
   9-> 28   9-> 28       0.037908


        !!!!!!!!!!!!!!!!!!!!!!!!!!!!!!!!!!!!!!!!!!!!!!!!!!!!!!!!!!!!!!!!!!!!!!!!!! 
        !  Warning: for CCSD and QCISD the densities are linearized CC densities !
        !!!!!!!!!!!!!!!!!!!!!!!!!!!!!!!!!!!!!!!!!!!!!!!!!!!!!!!!!!!!!!!!!!!!!!!!!! 

Trace of internal density part =     -0.895253579
Trace of external density part =      0.895253579

-------------------------------------------
DLPNO BASED TRIPLES CORRECTION
-------------------------------------------

Singles multiplier          ...  1.000000
TCutTNO                     ... 1.000e-07
TCutMP2Pairs                ... 1.000e-05
TCutMKNStrong               ... 1.000e-02
TCutMKNWeak                 ... 1.000e-01
NTCutTNO                    ... 1

TCutTNO
  0.000000100000
Number of Triples that are to be computed         ...     1512

10% done
20% done
30% done
40% done
50% done
60% done
70% done
80% done
90% done
Triples-Correction TCutTNO=   1.000e-07 (NWeakPairs = 0  1  2  3)  -0.043131530768   -0.000056721000    0.000000000000    0.000000000000
Triples timings:
Total time                    ...    70.062 sec

Triples List generation       ...     0.000 sec
TNO generation                ...     3.402 sec
Pair density generation       ...     0.002 sec
Look up tables                ...     0.000 sec
Generating 3-index integrals  ...    21.585 sec
Make 4-ind.int. from 3-ind.int...    17.881 sec
Projecting amplitudes (D + S) ...     2.690 sec
Downprojecting integrals      ...     0.001 sec
Calculate W0/W1               ...     1.211 sec
Energy contr. (sum over a,b,c)...     0.350 sec
Fitting ET(->0)               ...     0.000 sec

Everything after 3-index      ...    22.146 sec

 TNO integrals                 ...    38.382 sec
   Reading 3-index integrals  ...     0.013 sec
   Sorting integrals          ...     2.598 sec
       Sorting integrals 1    ...     0.000 sec
       Sorting integrals 2    ...     2.228 sec
       Sorting integrals 3    ...     0.170 sec
       Sorting integrals 4    ...     0.025 sec
       Sorting integrals 5    ...     0.042 sec
       Sorting integrals 6    ...     0.133 sec
   Calculating local VM**-1/2 ...    12.249 sec
   Orthogonal. integrals      ...     4.357 sec
   Multipl. 3-index integrals ...    19.165 sec
  All concerning IRIab (w/ TNO)...     3.439 sec

 W 3-ext contribution          ...     0.721 sec
 W 3-int contribution          ...     0.302 sec
 Sorting W                     ...     0.172 sec

V exchange contribution       ...     0.162 sec

 Timings for Triples without generation
     of 3-index integrals     ...    22.145 sec
       0 weak pairs           ...    21.601 sec
       1 weak pair            ...     0.543 sec
       2 weak pairs           ...     0.000 sec
       3 weak pairs           ...     0.000 sec
 Extra time for extrapolation  ...     0.000 sec

Number of Triples (0, 1, 2, 3 weak pairs; overall): 1440 72 0 0 1512
Number of Atoms   (0, 1, 2, 3 weak pairs; overall):   15.8    15.5    -nan    -nan  (16)
Number of PAOs    (0, 1, 2, 3 weak pairs; overall):  145.8   128.7    -nan    -nan  (152)
Number of AuxFcns (0, 1, 2, 3 weak pairs; overall):  406.5   219.3    -nan    -nan  (560)
TRIPLES STAT OVERALL (nr. Triples: 1512): Aver. nr. of NTNO/Atoms/PAOs/AuxFcns:   42.7/  15.7/ 144.9/ 397.6 (16/152/560)
Number of TNOs EP 0 (0, 1, 2, 3 weak pairs):   43.0    37.0    -nan    -nan

Triples Correction (T)                     ...     -0.043188252
Final correlation energy                   ...     -1.173620430
E(CCSD)                                    ...   -308.541323811
E(CCSD(T))                                 ...   -308.584512063

NORM  =      1.449950195 sqrt=     1.204138777
W(HF) =      0.689678862
------------------------------------------------------------------------------
                           ORCA POPULATION ANALYSIS
------------------------------------------------------------------------------
Input electron density              ... /home/vladimir/Quantum_Chemistry/ORCA/C8H8/cubane/optimize/CC/DLPNO_CCSDT/cc-pVDZ/./cubane.mdcip.tmp
BaseName (.gbw .S,...)              ... /home/vladimir/Quantum_Chemistry/ORCA/C8H8/cubane/optimize/CC/DLPNO_CCSDT/cc-pVDZ/./cubane

                    ********************************
                    * MULLIKEN POPULATION ANALYSIS *
                    ********************************

-----------------------
MULLIKEN ATOMIC CHARGES
-----------------------
   0 H :   -0.003672
   1 H :   -0.003672
   2 H :   -0.003672
   3 H :   -0.003672
   4 H :   -0.003672
   5 H :   -0.003672
   6 H :   -0.003672
   7 H :   -0.003672
   8 C :    0.003672
   9 C :    0.003672
  10 C :    0.003672
  11 C :    0.003672
  12 C :    0.003672
  13 C :    0.003672
  14 C :    0.003672
  15 C :    0.003672
Sum of atomic charges:   -0.0000000

--------------------------------
MULLIKEN REDUCED ORBITAL CHARGES
--------------------------------
  0 H s       :     0.970943  s :     0.970943
      pz      :     0.010910  p :     0.032730
      px      :     0.010910
      py      :     0.010910
  1 H s       :     0.970943  s :     0.970943
      pz      :     0.010910  p :     0.032730
      px      :     0.010910
      py      :     0.010910
  2 H s       :     0.970943  s :     0.970943
      pz      :     0.010910  p :     0.032730
      px      :     0.010910
      py      :     0.010910
  3 H s       :     0.970943  s :     0.970943
      pz      :     0.010910  p :     0.032730
      px      :     0.010910
      py      :     0.010910
  4 H s       :     0.970943  s :     0.970943
      pz      :     0.010910  p :     0.032730
      px      :     0.010910
      py      :     0.010910
  5 H s       :     0.970943  s :     0.970943
      pz      :     0.010910  p :     0.032730
      px      :     0.010910
      py      :     0.010910
  6 H s       :     0.970943  s :     0.970943
      pz      :     0.010910  p :     0.032730
      px      :     0.010910
      py      :     0.010910
  7 H s       :     0.970943  s :     0.970943
      pz      :     0.010910  p :     0.032730
      px      :     0.010910
      py      :     0.010910
  8 C s       :     3.197686  s :     3.197686
      pz      :     0.897466  p :     2.692399
      px      :     0.897466
      py      :     0.897466
      dz2     :     0.025988  d :     0.106242
      dxz     :     0.018089
      dyz     :     0.018089
      dx2y2   :     0.025988
      dxy     :     0.018089
  9 C s       :     3.197686  s :     3.197686
      pz      :     0.897466  p :     2.692399
      px      :     0.897466
      py      :     0.897466
      dz2     :     0.025988  d :     0.106242
      dxz     :     0.018089
      dyz     :     0.018089
      dx2y2   :     0.025988
      dxy     :     0.018089
 10 C s       :     3.197686  s :     3.197686
      pz      :     0.897466  p :     2.692399
      px      :     0.897466
      py      :     0.897466
      dz2     :     0.025988  d :     0.106242
      dxz     :     0.018089
      dyz     :     0.018089
      dx2y2   :     0.025988
      dxy     :     0.018089
 11 C s       :     3.197686  s :     3.197686
      pz      :     0.897466  p :     2.692399
      px      :     0.897466
      py      :     0.897466
      dz2     :     0.025988  d :     0.106242
      dxz     :     0.018089
      dyz     :     0.018089
      dx2y2   :     0.025988
      dxy     :     0.018089
 12 C s       :     3.197686  s :     3.197686
      pz      :     0.897466  p :     2.692399
      px      :     0.897466
      py      :     0.897466
      dz2     :     0.025988  d :     0.106242
      dxz     :     0.018089
      dyz     :     0.018089
      dx2y2   :     0.025988
      dxy     :     0.018089
 13 C s       :     3.197686  s :     3.197686
      pz      :     0.897466  p :     2.692399
      px      :     0.897466
      py      :     0.897466
      dz2     :     0.025988  d :     0.106242
      dxz     :     0.018089
      dyz     :     0.018089
      dx2y2   :     0.025988
[...]
Pair density generation       ...     0.001 sec
Look up tables                ...     0.000 sec
Generating 3-index integrals  ...    21.328 sec
Make 4-ind.int. from 3-ind.int...    15.749 sec
Projecting amplitudes (D + S) ...     2.751 sec
Downprojecting integrals      ...     0.001 sec
Calculate W0/W1               ...     1.283 sec
Energy contr. (sum over a,b,c)...     0.357 sec
Fitting ET(->0)               ...     0.000 sec

Everything after 3-index      ...    20.155 sec

 TNO integrals                 ...    36.266 sec
   Reading 3-index integrals  ...     0.013 sec
   Sorting integrals          ...     2.584 sec
       Sorting integrals 1    ...     0.000 sec
       Sorting integrals 2    ...     2.207 sec
       Sorting integrals 3    ...     0.165 sec
       Sorting integrals 4    ...     0.025 sec
       Sorting integrals 5    ...     0.043 sec
       Sorting integrals 6    ...     0.145 sec
   Calculating local VM**-1/2 ...     9.642 sec
   Orthogonal. integrals      ...     4.808 sec
   Multipl. 3-index integrals ...    19.220 sec
  All concerning IRIab (w/ TNO)...     3.525 sec

 W 3-ext contribution          ...     0.775 sec
 W 3-int contribution          ...     0.310 sec
 Sorting W                     ...     0.182 sec

V exchange contribution       ...     0.164 sec

 Timings for Triples without generation
     of 3-index integrals     ...    20.153 sec
       0 weak pairs           ...    19.583 sec
       1 weak pair            ...     0.570 sec
       2 weak pairs           ...     0.000 sec
       3 weak pairs           ...     0.000 sec
 Extra time for extrapolation  ...     0.000 sec

Number of Triples (0, 1, 2, 3 weak pairs; overall): 1440 72 0 0 1512
Number of Atoms   (0, 1, 2, 3 weak pairs; overall):   15.8    15.5    -nan    -nan  (16)
Number of PAOs    (0, 1, 2, 3 weak pairs; overall):  145.8   128.7    -nan    -nan  (152)
Number of AuxFcns (0, 1, 2, 3 weak pairs; overall):  406.5   219.3    -nan    -nan  (560)
TRIPLES STAT OVERALL (nr. Triples: 1512): Aver. nr. of NTNO/Atoms/PAOs/AuxFcns:   42.7/  15.7/ 144.9/ 397.6 (16/152/560)
Number of TNOs EP 0 (0, 1, 2, 3 weak pairs):   43.0    37.0    -nan    -nan

Triples Correction (T)                     ...     -0.043173889
Final correlation energy                   ...     -1.173532382
E(CCSD)                                    ...   -308.541338724
E(CCSD(T))                                 ...   -308.584512613

NORM  =      1.449826219 sqrt=     1.204087297
W(HF) =      0.689737837
------------------------------------------------------------------------------
                           ORCA POPULATION ANALYSIS
------------------------------------------------------------------------------
Input electron density              ... /home/vladimir/Quantum_Chemistry/ORCA/C8H8/cubane/optimize/CC/DLPNO_CCSDT/cc-pVDZ/./cubane.mdcip.tmp
BaseName (.gbw .S,...)              ... /home/vladimir/Quantum_Chemistry/ORCA/C8H8/cubane/optimize/CC/DLPNO_CCSDT/cc-pVDZ/./cubane

                    ********************************
                    * MULLIKEN POPULATION ANALYSIS *
                    ********************************

-----------------------
MULLIKEN ATOMIC CHARGES
-----------------------
   0 H :   -0.003798
   1 H :   -0.003798
   2 H :   -0.003798
   3 H :   -0.003798
   4 H :   -0.003798
   5 H :   -0.003798
   6 H :   -0.003798
   7 H :   -0.003798
   8 C :    0.003798
   9 C :    0.003798
  10 C :    0.003798
  11 C :    0.003798
  12 C :    0.003798
  13 C :    0.003798
  14 C :    0.003798
  15 C :    0.003798
Sum of atomic charges:    0.0000000

--------------------------------
MULLIKEN REDUCED ORBITAL CHARGES
--------------------------------
  0 H s       :     0.971057  s :     0.971057
      pz      :     0.010914  p :     0.032741
      px      :     0.010914
      py      :     0.010914
  1 H s       :     0.971057  s :     0.971057
      pz      :     0.010914  p :     0.032741
      px      :     0.010914
      py      :     0.010914
  2 H s       :     0.971057  s :     0.971057
      pz      :     0.010914  p :     0.032741
      px      :     0.010914
      py      :     0.010914
  3 H s       :     0.971057  s :     0.971057
      pz      :     0.010914  p :     0.032741
      px      :     0.010914
      py      :     0.010914
  4 H s       :     0.971057  s :     0.971057
      pz      :     0.010914  p :     0.032741
      px      :     0.010914
      py      :     0.010914
  5 H s       :     0.971057  s :     0.971057
      pz      :     0.010914  p :     0.032741
      px      :     0.010914
      py      :     0.010914
  6 H s       :     0.971057  s :     0.971057
      pz      :     0.010914  p :     0.032741
      px      :     0.010914
      py      :     0.010914
  7 H s       :     0.971057  s :     0.971057
      pz      :     0.010914  p :     0.032741
      px      :     0.010914
      py      :     0.010914
  8 C s       :     3.197454  s :     3.197454
      pz      :     0.897490  p :     2.692471
      px      :     0.897490
      py      :     0.897490
      dz2     :     0.025993  d :     0.106277
      dxz     :     0.018097
      dyz     :     0.018097
      dx2y2   :     0.025993
      dxy     :     0.018097
  9 C s       :     3.197454  s :     3.197454
      pz      :     0.897490  p :     2.692471
      px      :     0.897490
      py      :     0.897490
      dz2     :     0.025993  d :     0.106277
      dxz     :     0.018097
      dyz     :     0.018097
      dx2y2   :     0.025993
      dxy     :     0.018097
 10 C s       :     3.197454  s :     3.197454
      pz      :     0.897490  p :     2.692471
      px      :     0.897490
      py      :     0.897490
      dz2     :     0.025993  d :     0.106277
      dxz     :     0.018097
      dyz     :     0.018097
      dx2y2   :     0.025993
      dxy     :     0.018097
 11 C s       :     3.197454  s :     3.197454
      pz      :     0.897490  p :     2.692471
      px      :     0.897490
      py      :     0.897490
      dz2     :     0.025993  d :     0.106277
      dxz     :     0.018097
      dyz     :     0.018097
      dx2y2   :     0.025993
      dxy     :     0.018097
 12 C s       :     3.197454  s :     3.197454
      pz      :     0.897490  p :     2.692471
      px      :     0.897490
      py      :     0.897490
      dz2     :     0.025993  d :     0.106277
      dxz     :     0.018097
      dyz     :     0.018097
      dx2y2   :     0.025993
      dxy     :     0.018097
 13 C s       :     3.197454  s :     3.197454
      pz      :     0.897490  p :     2.692471
      px      :     0.897490
      py      :     0.897490
      dz2     :     0.025993  d :     0.106277
      dxz     :     0.018097
      dyz     :     0.018097
      dx2y2   :     0.025993
      dxy     :     0.018097
 14 C s       :     3.197454  s :     3.197454
      pz      :     0.897490  p :     2.692471
      px      :     0.897490
      py      :     0.897490
      dz2     :     0.025993  d :     0.106277
      dxz     :     0.018097
      dyz     :     0.018097
      dx2y2   :     0.025993
      dxy     :     0.018097
 15 C s       :     3.197454  s :     3.197454
      pz      :     0.897490  p :     2.692471
      px      :     0.897490
      py      :     0.897490
      dz2     :     0.025993  d :     0.106277
      dxz     :     0.018097
      dyz     :     0.018097
      dx2y2   :     0.025993
      dxy     :     0.018097


                     *******************************
                     * LOEWDIN POPULATION ANALYSIS *
                     *******************************

----------------------
LOEWDIN ATOMIC CHARGES
----------------------
   0 H :    0.001933
   1 H :    0.001933
   2 H :    0.001933
   3 H :    0.001933
   4 H :    0.001933
   5 H :    0.001933
   6 H :    0.001933
   7 H :    0.001933
   8 C :   -0.001933
   9 C :   -0.001933
  10 C :   -0.001933
  11 C :   -0.001933
  12 C :   -0.001933
  13 C :   -0.001933
  14 C :   -0.001933
  15 C :   -0.001933

-------------------------------
LOEWDIN REDUCED ORBITAL CHARGES
-------------------------------
  0 H s       :     0.905944  s :     0.905944
      pz      :     0.030708  p :     0.092123
      px      :     0.030708
      py      :     0.030708
  1 H s       :     0.905944  s :     0.905944
      pz      :     0.030708  p :     0.092123
      px      :     0.030708
      py      :     0.030708
  2 H s       :     0.905944  s :     0.905944
      pz      :     0.030708  p :     0.092123
      px      :     0.030708
      py      :     0.030708
  3 H s       :     0.905944  s :     0.905944
      pz      :     0.030708  p :     0.092123
      px      :     0.030708
      py      :     0.030708
  4 H s       :     0.905944  s :     0.905944
      pz      :     0.030708  p :     0.092123
      px      :     0.030708
      py      :     0.030708
  5 H s       :     0.905944  s :     0.905944
      pz      :     0.030708  p :     0.092123
      px      :     0.030708
      py      :     0.030708
  6 H s       :     0.905944  s :     0.905944
      pz      :     0.030708  p :     0.092123
      px      :     0.030708
      py      :     0.030708
  7 H s       :     0.905944  s :     0.905944
      pz      :     0.030708  p :     0.092123
      px      :     0.030708
      py      :     0.030708
  8 C s       :     2.828857  s :     2.828857
      pz      :     0.978104  p :     2.934311
      px      :     0.978104
      py      :     0.978104
      dz2     :     0.058558  d :     0.238765
      dxz     :     0.040550
      dyz     :     0.040550
      dx2y2   :     0.058558
      dxy     :     0.040550
  9 C s       :     2.828857  s :     2.828857
      pz      :     0.978104  p :     2.934311
      px      :     0.978104
      py      :     0.978104
      dz2     :     0.058558  d :     0.238765
      dxz     :     0.040550
      dyz     :     0.040550
      dx2y2   :     0.058558
      dxy     :     0.040550
 10 C s       :     2.828857  s :     2.828857
      pz      :     0.978104  p :     2.934311
      px      :     0.978104
      py      :     0.978104
      dz2     :     0.058558  d :     0.238765
      dxz     :     0.040550
      dyz     :     0.040550
      dx2y2   :     0.058558
      dxy     :     0.040550
 11 C s       :     2.828857  s :     2.828857
      pz      :     0.978104  p :     2.934311
      px      :     0.978104
      py      :     0.978104
      dz2     :     0.058558  d :     0.238765
      dxz     :     0.040550
      dyz     :     0.040550
      dx2y2   :     0.058558
      dxy     :     0.040550
 12 C s       :     2.828857  s :     2.828857
      pz      :     0.978104  p :     2.934311
      px      :     0.978104
      py      :     0.978104
      dz2     :     0.058558  d :     0.238765
      dxz     :     0.040550
      dyz     :     0.040550
      dx2y2   :     0.058558
      dxy     :     0.040550
 13 C s       :     2.828857  s :     2.828857
      pz      :     0.978104  p :     2.934311
      px      :     0.978104
      py      :     0.978104
      dz2     :     0.058558  d :     0.238765
      dxz     :     0.040550
      dyz     :     0.040550
      dx2y2   :     0.058558
      dxy     :     0.040550
 14 C s       :     2.828857  s :     2.828857
      pz      :     0.978104  p :     2.934311
      px      :     0.978104
      py      :     0.978104
      dz2     :     0.058558  d :     0.238765
      dxz     :     0.040550
      dyz     :     0.040550
      dx2y2   :     0.058558
      dxy     :     0.040550
 15 C s       :     2.828857  s :     2.828857
      pz      :     0.978104  p :     2.934311
      px      :     0.978104
      py      :     0.978104
      dz2     :     0.058558  d :     0.238765
      dxz     :     0.040550
      dyz     :     0.040550
      dx2y2   :     0.058558
      dxy     :     0.040550


                      *****************************
                      * MAYER POPULATION ANALYSIS *
                      *****************************

  NA   - Mulliken gross atomic population
  ZA   - Total nuclear charge
  QA   - Mulliken gross atomic charge
  VA   - Mayer's total valence
  BVA  - Mayer's bonded valence
  FA   - Mayer's free valence

  ATOM       NA         ZA         QA         VA         BVA        FA
  0 H      1.0038     1.0000    -0.0038     1.0051     0.9339     0.0713
  1 H      1.0038     1.0000    -0.0038     1.0051     0.9339     0.0713
  2 H      1.0038     1.0000    -0.0038     1.0051     0.9339     0.0713
  3 H      1.0038     1.0000    -0.0038     1.0051     0.9339     0.0713
  4 H      1.0038     1.0000    -0.0038     1.0051     0.9339     0.0713
  5 H      1.0038     1.0000    -0.0038     1.0051     0.9339     0.0713
  6 H      1.0038     1.0000    -0.0038     1.0051     0.9339     0.0713
  7 H      1.0038     1.0000    -0.0038     1.0051     0.9339     0.0713
  8 C      5.9962     6.0000     0.0038     3.9265     3.5606     0.3659
  9 C      5.9962     6.0000     0.0038     3.9265     3.5606     0.3659
 10 C      5.9962     6.0000     0.0038     3.9265     3.5606     0.3659
 11 C      5.9962     6.0000     0.0038     3.9265     3.5606     0.3659
 12 C      5.9962     6.0000     0.0038     3.9265     3.5606     0.3659
 13 C      5.9962     6.0000     0.0038     3.9265     3.5606     0.3659
 14 C      5.9962     6.0000     0.0038     3.9265     3.5606     0.3659
 15 C      5.9962     6.0000     0.0038     3.9265     3.5606     0.3659

  Mayer bond orders larger than 0.1
B(  0-H ,  8-C ) :   0.9336 B(  1-H ,  9-C ) :   0.9336 B(  2-H , 10-C ) :   0.9336 
B(  3-H , 11-C ) :   0.9336 B(  4-H , 12-C ) :   0.9336 B(  5-H , 13-C ) :   0.9336 
B(  6-H , 14-C ) :   0.9336 B(  7-H , 15-C ) :   0.9336 B(  8-C , 13-C ) :   0.9015 
B(  8-C , 14-C ) :   0.9015 B(  8-C , 15-C ) :   0.9015 B(  9-C , 12-C ) :   0.9015 
B(  9-C , 14-C ) :   0.9015 B(  9-C , 15-C ) :   0.9015 B( 10-C , 12-C ) :   0.9015 
B( 10-C , 13-C ) :   0.9015 B( 10-C , 15-C ) :   0.9015 B( 11-C , 12-C ) :   0.9015 
B( 11-C , 13-C ) :   0.9015 B( 11-C , 14-C ) :   0.9015 

-------
TIMINGS
-------

Total execution time                   ...      111.014 sec

Localization of occupied MO's          ...        0.221 sec (  0.2%)
Fock Matrix Formation                  ...        2.729 sec (  2.5%)
First Half Transformation              ...        0.847 sec (  0.8%)
RI-PNO integral transformation         ...        9.773 sec (  8.8%)
Initial Guess                          ...        3.145 sec (  2.8%)
DIIS Solver                            ...        0.462 sec (  0.4%)
State Vector Update                    ...        0.004 sec (  0.0%)
Sigma-vector construction              ...       29.509 sec ( 26.6%)
  <0|H|S>                              ...        0.508 sec (  1.7% of sigma)
  <D|H|D>(0-ext)                       ...        2.038 sec (  6.9% of sigma)
  <D|H|D>(2-ext Fock)                  ...        0.008 sec (  0.0% of sigma)
  <D|H|D>(2-ext)                       ...        3.590 sec ( 12.2% of sigma)
  <D|H|D>(4-ext)                       ...        0.654 sec (  2.2% of sigma)
  <D|H|D>(4-ext-corr)                  ...        3.660 sec ( 12.4% of sigma)
  CCSD doubles correction              ...        0.133 sec (  0.5% of sigma)
  <S|H|S>                              ...        0.099 sec (  0.3% of sigma)
  <S|H|D>(1-ext)                       ...        0.011 sec (  0.0% of sigma)
  <D|H|S>(1-ext)                       ...        0.183 sec (  0.6% of sigma)
  <S|H|D>(3-ext)                       ...        0.072 sec (  0.2% of sigma)
  Fock-dressing                        ...        3.266 sec ( 11.1% of sigma)
  Singles Fock matrix                  ...       11.750 sec ( 39.8% of sigma)
  Singles amplitudes                   ...        0.096 sec (  0.3% of sigma)
  (ik|jl)-dressing                     ...        1.162 sec (  3.9% of sigma)
  (ij|ab),(ia|jb)-dressing             ...        0.815 sec (  2.8% of sigma)
  Pair energies                        ...        0.003 sec (  0.0% of sigma)
Total Time for computing (T)           ...       62.090 sec ( 55.9% of ALL)

           ************************************************************
           *              Shut down parallel processing               *
           ************************************************************

-------------------------   --------------------
FINAL SINGLE POINT ENERGY      -308.584512613270
-------------------------   --------------------

                                *** OPTIMIZATION RUN DONE ***

                            ***************************************
                            *     ORCA property calculations      *
                            ***************************************

                                    ---------------------
                                    Active property flags
                                    ---------------------
   (+) Dipole Moment


------------------------------------------------------------------------------
                       ORCA ELECTRIC PROPERTIES CALCULATION
------------------------------------------------------------------------------

Dipole Moment Calculation                       ... on
Quadrupole Moment Calculation                   ... off
Polarizability Calculation                      ... off
GBWName                                         ... /home/vladimir/Quantum_Chemistry/ORCA/C8H8/cubane/optimize/CC/DLPNO_CCSDT/cc-pVDZ/./cubane.gbw
Electron density file                           ... /home/vladimir/Quantum_Chemistry/ORCA/C8H8/cubane/optimize/CC/DLPNO_CCSDT/cc-pVDZ/./cubane.scfp.tmp

-------------
DIPOLE MOMENT
-------------
                                X             Y             Z
Electronic contribution:      0.00000      -0.00000      -0.00000
Nuclear contribution   :     -0.00000       0.00000       0.00000
                        -----------------------------------------
Total Dipole Moment    :     -0.00000       0.00000       0.00000
                        -----------------------------------------
Magnitude (a.u.)       :      0.00000
Magnitude (Debye)      :      0.00000


                           *** MDCI DENSITY ***

------------------------------------------------------------------------------
                       ORCA ELECTRIC PROPERTIES CALCULATION
------------------------------------------------------------------------------

Dipole Moment Calculation                       ... on
Quadrupole Moment Calculation                   ... off
Polarizability Calculation                      ... off
GBWName                                         ... /home/vladimir/Quantum_Chemistry/ORCA/C8H8/cubane/optimize/CC/DLPNO_CCSDT/cc-pVDZ/./cubane.gbw
Electron density file                           ... /home/vladimir/Quantum_Chemistry/ORCA/C8H8/cubane/optimize/CC/DLPNO_CCSDT/cc-pVDZ/./cubane.mdcip.tmp

-------------
DIPOLE MOMENT
-------------
                                X             Y             Z
Electronic contribution:      0.00000      -0.00000      -0.00000
Nuclear contribution   :     -0.00000       0.00000       0.00000
                        -----------------------------------------
Total Dipole Moment    :     -0.00000       0.00000      -0.00000
                        -----------------------------------------
Magnitude (a.u.)       :      0.00000
Magnitude (Debye)      :      0.00000


Timings for individual modules:

Sum of individual times         ...    22773.710 sec (= 379.562 min)
GTO integral calculation        ...        2.312 sec (=   0.039 min)   0.0 %
SCF iterations                  ...       41.114 sec (=   0.685 min)   0.2 %
MDCI module                     ...      577.956 sec (=   9.633 min)   2.5 %
SCF Gradient evaluation         ...    22151.410 sec (= 369.190 min)  97.3 %
Geometry relaxation             ...        0.918 sec (=   0.015 min)   0.0 %
                             ****ORCA TERMINATED NORMALLY****
TOTAL RUN TIME: 0 days 6 hours 15 minutes 32 seconds 657 msec
